ITEM: TIMESTEP
1220000
ITEM: NUMBER OF ATOMS
29952
ITEM: BOX BOUNDS pp pp pp
-2.5128572496788230e+01 3.5113866838772154e+01
-9.9770444763073954e+01 1.0975573910507396e+02
-2.0925981953943030e+01 3.4793835098666541e+01
ITEM: ATOMS id type x y z v_StrAtomXX v_StrAtomYY v_StrAtomZZ v_StrAtomXY v_StrAtomXZ v_StrAtomYZ c_PEAtom v_VMS
2817 2 -20.2257 -34.6548 -16.7717 -95.5353 66.3099 -248.577 -74.6565 -19.267 42.0539 -68.4215 312.289
405 2 -22.8497 -34.472 -17.9312 -172.974 143.858 -267.371 -13.6071 11.2689 75.4435 -76.4649 396.501
25178 1 -21.7676 -34.0466 -16.822 255.512 -106.314 402.668 116.626 16.8993 -80.2817 -378.282 516.541
5289 2 -22.0821 -33.5974 -15.2352 -131.051 10.3005 -90.9265 -69.3947 -15.1541 71.783 -79.5735 215.668
25514 1 -23.9504 -33.3119 -18.5004 307.828 -169.393 371.498 7.54419 6.72696 -130.133 -367.314 559.721
23023 2 -24.4202 -32.9873 -16.9534 -139.73 46.6636 -122.393 -22.9034 -33.3622 66.469 -87.8463 223.56
18082 2 -19.756 -32.9414 -15.0836 -18.4394 -107.493 -91.3826 -52.4504 16.5591 104.46 -72.7254 220.379
7949 2 -21.3703 -32.63 -17.5019 -70.3426 -24.7903 -162.062 -63.1536 -56.2028 -11.6435 -83.8862 191.085
10375 2 -19.9286 -32.6461 -19.6625 -1.626 4.12328 -225.324 0.527035 -109.249 -34.0631 -71.8813 301.078
25330 2 -22.8124 -32.526 -19.425 -144.185 24.5392 -143.166 -38.0382 -49.282 -6.02154 -82.5751 200.081
22839 1 -21.2628 -32.0483 -18.9987 72.5442 -22.3986 352.057 44.6047 199.929 105.59 -371.85 522.504
25143 1 -18.9227 -33.7467 -16.2924 -7.19769 140.37 364.929 101.971 42.5678 -72.9585 -402.632 397.416
671 2 -17.5379 -33.9661 -15.4281 37.6378 -51.2121 -208.249 -22.5827 -19.2871 76.5263 -58.6498 258.307
28013 2 -18.5263 -33.1234 -17.7191 48.7683 -79.5772 -202.377 -24.8598 -69.4379 -38.8433 -66.4851 261.072
10257 2 -16.9911 -32.658 -19.8621 56.0638 3.51066 -310.23 -3.35502 -53.772 -52.5506 -65.503 366.982
7705 1 -18.4472 -32.381 -19.1211 -121.433 63.0487 520.379 -20.5902 209.844 160.312 -396.42 733.504
2998 2 -13.5555 -32.4226 -16.4905 13.358 -62.2246 -143.734 -11.6861 -49.3558 86.6126 -72.0699 220.772
108 2 -14.4373 -32.2281 -19.0334 80.7998 -50.9451 -212.252 -64.5997 53.1444 -34.778 -69.8541 298.745
7695 1 -13.1543 -32.5813 -18.1107 -99.9278 87.2832 379.278 114.781 -33.358 -70.4079 -384.839 482.398
25274 1 -16.8359 -32.6921 -14.7296 -200.159 183.614 299.158 -84.2863 80.8382 -211.477 -413.498 616.49
2718 2 -8.70717 -37.7318 -20.5413 -274.885 236.982 -281.145 57.0501 -99.6567 62.636 -72.6235 562.654
7612 1 -9.06516 -36.4012 -19.7455 484.265 -289.073 531.067 -100.66 209 -141.136 -368.716 926.085
12665 2 -7.96873 -36.0784 -18.5799 -195.728 121.41 -202.134 -3.87983 -26.4424 32.3559 -81.0662 328.531
7784 2 -10.388 -35.821 -19.162 -158.809 126.504 -272.88 52.814 -117.95 84.0902 -80.1551 445.286
2328 2 -10.408 -34.5746 -16.5328 -196.222 76.0808 -127.152 2.58171 -79.8174 89.2241 -78.5129 321.134
7693 1 -10.7724 -34.5549 -18.1622 230.249 -136.761 431.671 14.6239 227.74 -209.64 -367.929 732.992
12379 2 -12.2443 -33.9427 -18.275 -5.52617 29.4876 -253.849 -25.1004 -44.336 76.79 -76.4919 311.548
7696 1 -10.0731 -33.5356 -15.2402 319.248 -14.2945 116.249 -13.8411 39.0212 -230.357 -376.309 499.085
2814 2 -9.66798 -33.3938 -18.6398 -131.956 29.193 -136.805 -45.8895 -117.208 114.284 -93.2771 336.879
5282 1 -8.39742 -32.3943 -18.4292 167.498 -71.4843 82.5201 27.4001 156.001 -237.264 -346.271 536.814
7318 2 -10.5545 -32.1527 -16.0039 -118.465 -27.4839 -51.1068 -16.7064 -35.1584 138.997 -88.0478 263.045
7952 2 -7.33861 -33.5464 -17.8102 -34.5306 -0.753381 -72.9085 -11.2319 -3.29522 133.844 -88.609 240.964
2604 2 -7.11182 -34.3857 -20.1469 -114.179 48.2473 -153.001 2.4491 -38.3541 64.0134 -93.1749 225.653
17670 2 -3.07665 -35.7586 -19.7135 -106.208 39.5445 -93.8137 -36.1201 3.04599 83.4899 -73.1539 210.818
2899 2 -5.39587 -35.4542 -18.305 -41.3455 39.0019 -186.974 -22.8921 77.5458 60.5384 -76.5276 264.52
5163 1 -3.92457 -34.9893 -18.5697 116.426 -23.4495 291.226 40.0577 -118.83 -162.613 -379.162 448.414
7983 1 -6.86933 -34.9059 -18.5777 103.004 -58.0785 328.616 9.07531 -58.9926 -163.949 -363.825 452.234
7764 2 -2.97512 -34.6561 -17.3235 -67.3056 -1.14034 -115.252 -35.0759 117.414 70.897 -75.7977 264.532
18035 2 -4.25245 -33.4225 -19.0876 -8.9587 -65.36 -91.6336 -13.6709 51.3275 80.2875 -86.699 182.087
10443 1 -2.63785 -33.276 -16.584 -28.9373 191.013 101.032 130.61 -240.851 -200.023 -370.986 617.993
10099 2 -3.74918 -32.8731 -15.5012 1.08919 -114.31 -2.30544 -74.1933 64.4708 122.113 -81.3813 294.372
7518 2 -2.6467 -32.1327 -17.7347 19.0683 -102.09 -31.1764 -58.4512 83.7597 86.9 -87.407 255.084
90 2 -6.22434 -32.378 -15.0026 -2.642 -103.329 26.7042 -28.0275 31.5343 127.343 -83.2007 260.657
10194 2 -2.66164 -31.9191 -20.3461 -28.8104 -59.3023 36.5453 -72.2947 8.15707 49.2504 -84.9272 174.212
15095 2 -1.27495 -33.0142 -15.7674 80.339 -136.345 -39.2352 -95.0648 138.848 83.9969 -83.1163 376.104
10359 1 -3.62293 -31.9407 -19.109 34.1089 104.681 39.0377 117.394 -89.153 -129.05 -357.583 346.132
15393 2 2.39234 -35.1229 -16.8299 -135.146 9.93321 1.07203 -3.35457 128.309 41.1752 -87.9759 272.673
5209 1 2.38562 -34.1762 -15.5237 75.1833 161.087 -61.6866 83.6407 -280.988 -71.3397 -340.834 557.663
12686 1 3.12838 -34.0952 -17.8442 237.573 161.678 -160.915 0.809681 -248.232 -12.9851 -345.455 565.397
17470 2 4.46178 -33.6982 -18.5789 -183.11 -50.1258 117.844 51.4573 121.466 -32.8934 -98.6193 351.693
15091 2 1.88217 -33.6532 -18.859 -44.5874 -131.206 77.3741 -12.906 139.359 24.0325 -86.7417 305.674
12900 2 -0.380472 -33.328 -20.2751 12.4772 -133.387 65.0564 -21.4267 69.8326 93.9238 -80.1954 272.365
15245 2 3.27943 -33.2043 -16.4673 -47.5534 -97.3716 110.389 -26.1475 121.725 -0.0198172 -102.562 286.004
10250 1 0.936102 -32.6729 -19.6529 -75.0693 288.199 -170.443 48.8101 -202.534 -105.829 -368.995 582.677
17340 2 1.97167 -32.2147 -20.8269 -29.3891 -104.52 129.228 40.0727 101.624 6.1504 -85.034 280.419
12875 2 1.16401 -33.3683 -15.0166 46.4853 -117.611 -14.4714 -107.701 134.63 50.001 -92.5909 342.513
7858 2 6.42778 -32.7201 -20.3233 -196.004 20.9988 110.332 80.6116 108.92 -40.5441 -95.1587 366.706
17971 2 6.84753 -32.6122 -15.0357 -170.298 13.0348 167.531 80.1643 -2.07854 -94.7298 -123.415 363.342
12868 1 5.57546 -32.5581 -18.9487 358.401 58.5876 -307.372 -201.53 -234.565 152.816 -329.648 830.962
15259 2 6.32115 -32.2059 -17.5431 -153.702 -13.5499 127.399 103.748 63.6125 -107.174 -110.344 371.689
28124 2 34.8423 -32.6525 -19.0879 -127.113 72.5539 -146.529 -3.79967 23.9701 48.1704 -82.6373 229.889
23301 2 33.9701 -32.2073 -15.0154 -124.41 -32.2941 17.2706 -10.9368 -51.4736 22.071 -88.0509 158.986
7699 2 -24.0092 -31.0129 -15.4655 -115.085 -9.16472 26.5486 -28.5795 -58.6539 43.3769 -96.8253 186.261
7901 2 -21.3583 -30.4718 -18.8327 -12.1289 40.5111 -122.719 -11.6803 -113.316 -84.6295 -85.6378 285.027
10315 2 -22.1829 -29.5747 -16.4581 -79.3702 30.2176 16.4445 15.744 -54.394 -21.707 -90.9213 147.388
258 2 -23.5012 -29.1099 -18.775 -91.4773 32.5389 14.3577 22.2346 -64.9506 -76.4121 -97.0537 212.394
25333 1 -22.0391 -29.2582 -18.0612 86.4079 -98.231 58.8738 -46.8746 173.725 106.452 -352.137 401.117
2968 1 -24.2611 -29.068 -20.2161 139.345 13.4634 -37.3487 -81.48 107.67 198.18 -344.982 444.236
28055 2 -21.4399 -27.8042 -18.2296 44.6658 -15.3049 -6.48052 93.0263 -75.5409 -28.4078 -92.6274 220.561
5012 2 -24.811 -27.5914 -20.4109 -3.31167 -82.6893 59.0792 27.1511 -71.4076 -65.629 -100.299 213.485
25614 2 -23.4754 -26.5496 -17.0357 16.2211 -60.6576 119.286 57.0437 -83.8946 -18.8438 -103.899 237.483
25419 1 -22.0354 -26.3769 -17.8486 -170.301 173.662 -161.175 -244.902 135.224 42.8831 -334.506 596.288
2510 1 -22.7187 -30.2171 -15.0187 151.36 -14.3591 -93.1921 52.4997 15.2065 -62.7154 -347.822 259.814
2966 1 -24.9489 -26.9089 -16.3907 14.1062 45.4127 -231.394 -49.7217 45.0849 27.9256 -321.136 291.188
554 1 -15.6283 -31.7776 -20.1655 -133.096 76.2874 530.115 92.8071 14.151 140.151 -394.548 655.89
5091 1 -13.9684 -31.8725 -15.0067 -71.1636 121.085 249.138 13.1769 175.276 -208.28 -395.055 548.456
25559 2 -17.1058 -31.5255 -15.7578 131.166 -69.7775 -58.2411 62.7491 -19.1182 56.8066 -60.7025 246.542
25038 2 -18.499 -30.751 -19.0853 93.4866 -12.1705 -220.649 25.916 -96.0115 -76.8838 -73.8101 352.217
5396 2 -16.3621 -30.3407 -20.1278 58.6612 -49.0669 -229.107 -34.8326 -28.9812 -52.8894 -76.819 279.225
484 1 -17.808 -29.5957 -19.9604 -176.061 34.9901 379.534 12.5202 95.5838 89.502 -376.247 536.545
7869 2 -17.4551 -28.1434 -19.4158 72.1325 -53.2955 -64.7089 -28.7804 -2.02158 55.3622 -84.1915 170.253
7880 2 -15.468 -27.6797 -15.2652 84.1642 -102.124 -5.94817 -92.5249 7.74428 -26.0537 -86.1133 232.24
27850 2 -15.132 -27.4505 -19.8933 85.7198 -157.738 28.1706 -110.466 14.7388 57.4188 -86.1298 309.392
374 1 -16.4012 -26.9943 -19.1293 -142.724 294.113 -91.408 176.81 -74.528 -199.137 -355.969 632.818
14921 2 -16.1231 -26.6846 -17.5837 71.3789 -177.825 47.3906 -99.143 80.7196 87.1789 -91.7838 358.518
2896 1 -15.7479 -26.3405 -16.0198 -244.908 401.674 -61.1388 197.66 -103.301 1.6225 -341.632 694.441
27779 2 -14.4632 -30.3433 -15.2677 22.2984 -22.6849 -81.5353 -43.9349 -56.4525 70.669 -73.1105 196.132
2884 1 -13.891 -27.7836 34.7782 -182.602 315.921 -78.0069 210.593 -35.852 -33.8277 -366.39 589.626
7713 2 -11.8618 -31.5181 -18.189 -13.3479 -6.56256 -117.392 -77.6779 -8.42942 52.0829 -83.9447 195.013
17952 2 -9.11158 -31.2134 -17.6923 -74.5944 37.8627 -24.2918 -26.2971 -56.3643 117.2 -93.249 249.666
2811 1 -10.6718 -31.1032 -17.258 142.65 -67.3235 135.408 106.928 78.767 -211.345 -354.67 479.098
5203 2 -10.8871 -29.5469 -17.0133 -39.1151 34.5927 -28.4447 -82.9044 -15.3844 92.1831 -90.6566 227.119
10817 2 -8.81262 -28.165 -17.0014 -9.77941 -71.9903 51.3112 -92.2192 -23.8906 81.5953 -97.685 242.078
5727 1 -10.3335 -28.0962 -17.3212 16.9648 101.271 -84.8984 219.856 25.9201 -145.891 -345.164 486.775
2946 2 -10.4011 -27.6135 -18.8922 2.89871 -99.9065 75.886 -120.518 -1.78503 39.5136 -91.386 267.706
25543 2 -12.5661 -27.1647 -20.2649 97.4219 -164.405 69.5992 -101.227 47.0709 42.1846 -84.8634 323.681
28205 2 -11.3341 -27.1823 -16.4439 49.1741 -100.597 22.7083 -128.182 -18.3881 61.1765 -97.3909 284.081
3146 1 -11.0203 -26.6891 -19.9988 -72.9095 282.436 -216.945 234.976 -14.0791 -77.8328 -358.868 618.554
7789 1 -7.38944 -28.5043 -16.3061 -17.8191 151.892 -149.053 185.743 18.9848 -156.266 -341.142 496.121
15441 2 -7.54014 -31.6004 -19.489 -77.5443 42.6886 -11.2889 -8.22761 -37.7768 63.8977 -95.0174 166.171
7782 2 -7.11202 -26.548 -18.6821 -1.27274 -107.24 103.997 -52.8198 -56.2882 31.2722 -94.833 232.969
7489 1 -4.81407 -31.6706 -15.1539 -36.1967 280.944 -123.741 173.966 -47.3382 -243.459 -361.248 641.356
7593 2 -4.59284 -30.7182 -18.7531 -4.13113 -45.2427 8.71206 -59.6289 42.3597 56.5802 -91.4557 167.442
10538 1 -6.86847 -30.6187 -20.5646 150.789 -14.3317 -41.816 46.0331 28.0114 -61.2869 -346.355 229.211
5837 2 -4.47326 -30.6573 -16.2682 16.2588 -116.775 26.7578 -97.7859 19.8046 87.3866 -90.5011 268.285
5210 1 -4.58063 -29.6737 -17.5481 -41.1524 160.327 -74.2408 156.416 -30.9332 -100.678 -351.432 393.741
10458 2 -6.11794 -29.1123 -17.1724 12.0609 -82.4746 56.6498 -100.192 -8.60565 79.1173 -94.0795 253.488
25448 2 -6.94468 -29.0846 -20.0381 -51.8197 -29.9636 60.7342 -50.6888 -14.0682 43.9015 -93.7118 157.385
8004 2 -3.29431 -28.686 -17.7867 65.4433 -81.502 22.2045 -24.5638 27.2186 14.5965 -90.1195 147.583
12886 2 -1.63151 -28.4575 -20.0731 27.9668 -66.7673 37.4646 -6.26021 45.6163 -5.66547 -87.3929 128.144
13310 1 -1.77552 -28.3541 -18.4417 -103.673 155.505 -32.1399 16.1317 -116.176 34.2229 -355.617 313.904
662 1 -6.78463 -27.4831 -19.9954 26.9822 134.646 -176.048 116.357 53.1609 -34.5971 -348.622 356.872
10481 2 -5.11509 -27.1879 -20.1686 11.2175 -63.2361 51.6887 -19.4418 -30.2905 -4.86445 -92.6578 118.962
28136 2 -6.73799 -26.959 -16.1179 22.4855 -110.346 114.032 -82.6834 -2.59804 60.3401 -97.9539 263.89
603 1 -4.07893 -26.1592 -20.9667 -39.9731 142.014 -92.7862 29.927 -27.8031 42.1169 -347.524 236.32
7896 2 0.38277 -31.6646 -18.4816 71.9938 -87.858 23.6329 -72.6212 87.3761 42.9896 -84.7641 253.831
10494 2 0.455433 -31.1255 -15.9501 78.3904 -79.4846 28.1797 -114.196 89.7798 10.0381 -90.4223 288.313
5281 1 0.443981 -30.4732 -17.4619 -132.574 66.9858 11.0528 164.394 -153.518 9.35397 -359.682 428.757
2960 2 1.88096 -29.6183 -17.5953 65.9357 -27.2846 27.464 -79.1253 42.8315 -44.8355 -90.7982 192.095
12929 2 -0.850724 -29.5143 -17.7318 63.7419 -50.3038 -15.4899 -42.0678 72.65 -5.11925 -87.9575 177.397
8108 2 3.59685 -28.9082 -15.814 48.8214 -24.096 101.031 -106.495 37.1611 -91.5247 -100.174 274.128
10372 1 2.8561 -28.4223 -17.2115 -151.666 118.172 -134.194 196.299 -47.2366 157.843 -343.713 515.209
3094 2 4.16656 -28.0467 -18.0607 41.5575 -67.53 118.646 -86.7091 13.2878 -86.5627 -100.202 267.986
15359 2 1.76044 -27.2199 -17.2467 69.9472 -98.6159 34.6303 -90.4476 29.6118 -63.4078 -95.7143 250.883
5568 2 -0.831128 -27.0983 -18.0604 42.6718 -112.996 48.5795 -42.0005 43.4298 -29.4404 -93.5351 196.819
8152 1 0.384988 -26.3487 -17.2259 -105.531 238.067 -138.764 153.65 -19.0992 65.958 -341.897 464.277
15370 2 -0.156894 -26.0981 -15.7356 37.4188 -138.758 90.0186 -95.8013 -39.3323 -28.9697 -96.8934 278.863
20417 2 4.7729 -27.9913 -20.5296 -5.30648 -83.4536 131.644 -53.9602 71.9483 -39.8325 -103.791 254.145
3166 2 2.34662 -27.1172 -20.9624 64.0985 -132.169 83.3304 -88.3208 -1.14024 4.19078 -95.4372 257.145
12782 1 4.78925 -29.5598 -14.9683 3.66377 -43.256 -255.752 156.85 1.49899 191.369 -316.749 490.922
13053 2 5.05915 -31.1315 -19.59 -131.677 -21.8772 154.121 91.1782 106.82 -90.6967 -101.934 382.368
2977 1 6.8496 -31.4835 -16.279 220.276 -11.8727 -341.793 -217.497 -24.3101 245.378 -299.887 750.766
20277 2 8.43794 -31.1702 -16.5101 -28.6183 -13.7667 114.881 150.348 -33.6215 -135.352 -117.998 380.587
12789 2 5.92143 -30.2267 -15.8809 -53.2099 12.9963 157.572 6.86367 1.42191 -113.281 -114.097 271.113
15374 1 9.47446 -30.018 -16.2361 -107.007 175.248 -248.677 -254.675 108.833 268.69 -291.303 765.781
17386 2 9.04692 -28.8658 -17.2758 46.803 -100.41 144.482 71.4831 -8.2653 -147.19 -121.555 355.136
573 2 9.27126 -27.867 -19.7277 52.6397 -180.687 139.544 53.8454 58.0082 -123.077 -121.236 382.763
3178 2 6.89781 -27.8027 -18.7026 45.2358 -94.3332 139.13 -26.2959 36.8191 -96.8392 -112.308 275.091
5881 1 8.44774 -27.6766 -18.3038 -95.889 186.795 -287.763 -31.1189 -40.751 219.423 -298.302 568.588
494 1 5.36374 -27.5017 -19.0888 -69.4038 164.096 -267.58 150.829 -78.7214 133.315 -323.713 529.365
10511 2 8.84756 -26.3237 -17.5667 42.6846 -31.1871 124.407 -29.8985 3.89267 -51.2561 -114.731 169.651
15405 2 5.32738 -25.8322 -19.0566 43.8362 -70.6691 109.04 -97.6751 25.2324 -31.6779 -104.717 241.601
3068 2 9.23729 -29.4675 -14.8019 25.7302 -69.8328 155.498 125.86 -65.1688 -99.6874 -121.355 358.398
17777 2 11.0451 -30.4878 -16.2015 72.0342 -105.755 47.637 122.61 -57.8483 -106.332 -121.333 341.943
20589 2 13.7133 -30.5196 -15.4206 39.3938 -147.459 86.6072 101.054 59.9827 -86.0604 -116.002 331.08
12961 1 12.5886 -30.4289 -16.4643 -102.121 226.324 -46.9514 -226 36.4883 199.478 -292.33 607.78
12582 2 12.9527 -29.9691 -17.8942 40.0922 -101.421 18.8824 106.318 -22.9189 -124.915 -122.982 315.867
5615 2 15.1991 -28.8459 -18.5385 105.492 -179.004 20.5606 120.022 -47.3271 -94.4677 -123.625 375.095
18063 1 16.5172 -29.0306 -19.4453 -215.129 332.389 67.0124 -160.502 133.423 116.041 -304.354 629.275
20366 1 13.5739 -28.6025 -18.5469 -220.44 350.702 -119.725 -228.077 22.5445 271.241 -279.586 810.63
10374 2 13.0247 -27.9069 -19.8334 132.897 -236.694 86.0273 81.1754 46.0857 -144.948 -125.309 458.957
28026 2 13.0931 -27.4978 -17.4348 108.045 -136.88 98.5645 102.956 7.58844 -82.5576 -127.544 331.928
25727 2 15.1895 -25.9811 -20.263 118.126 -154.314 80.1749 104.818 22.1902 -108.219 -119.298 367.282
15165 2 15.9992 -28.4628 -20.8683 93.4886 -228.585 67.9704 75.2711 -45.6692 -71.2065 -112.527 366.919
12978 2 16.1341 -29.227 -14.8994 56.8273 -136.639 174.133 95.323 103.758 -141.609 -113.087 440
10592 2 16.983 -27.3999 -16.3945 105.118 -185.338 179.869 153.323 17.7342 -55.6983 -118.263 438.678
20534 1 16.4517 -27.6495 -14.8945 -146.692 262.417 -353.339 -287.736 -144.343 222.32 -301.065 868.202
186 2 19.7232 -29.6516 -17.8077 172.616 -79.0155 30.7016 13.9998 17.3406 -92.2089 -92.7957 273.396
10296 2 17.6095 -30.1984 -19.51 56.3835 -25.2492 -110.337 17.1334 -86.9789 -29.1281 -98.586 216.73
20257 1 19.0648 -29.4726 -19.1547 -287.768 221.127 146.583 -54.9167 117.717 95.8443 -335.58 552.063
15287 2 19.9563 -29.1986 -20.5012 116.195 -156.333 -24.3635 37.3812 -83.5287 -30.2506 -97.5501 289.12
285 2 17.7761 -28.0887 -18.8695 155.695 -223.376 1.09162 96.9029 -53.1307 -40.5477 -116.958 388.024
25535 2 21.926 -27.6241 -20.5477 148.397 -256.204 128.398 57.1692 -15.1002 -37.1938 -105.948 413.098
20439 1 22.6507 -26.9323 -19.3176 -345.74 431.236 -213.275 -38.4841 -33.6008 146.456 -313.499 768.436
18020 2 21.5942 -27.0009 -15.8147 207.492 -205.522 118.778 -34.6333 -19.127 -118.342 -108.071 434.19
20522 1 17.7079 -26.9483 -17.7068 -312.79 400.695 -205.804 -287.169 17.2746 31.6535 -296.596 833.95
17768 2 21.4932 -26.283 -18.3554 215.696 -193.883 66.3937 16.8358 -6.70071 -42.6696 -112.142 367.889
22872 2 19.2013 -26.6495 -17.3508 216.973 -208.626 98.1955 106.683 -0.329402 -12.6695 -113.606 423.459
20150 1 20.7336 -26.2619 -16.9854 -454.025 406.248 -205.66 -35.6983 11.9902 101.356 -312.491 789.409
23125 1 22.8189 -26.6939 -14.7751 -346.181 320.059 -173.519 85.9129 91.4553 283.657 -315.507 804.533
20478 2 27.3943 -30.1253 -15.7111 113.032 -131.919 -42.8931 40.7495 -42.5638 -57.8578 -96.3432 258.029
25504 1 25.9615 -29.6034 -15.0634 -89.0478 317.09 -133.85 -180.229 124.016 209.565 -324.359 678.595
20514 2 25.1981 -28.9791 -16.3561 12.1691 -193.91 74.7859 56.1329 -28.2073 -106.083 -110.759 323.874
25136 2 28.111 -28.8717 -20.3599 39.8188 -199.228 95.2129 -24.9564 -22.8741 -38.7386 -96.1152 285.296
20450 1 24.7641 -28.5837 -17.7772 -73.8201 414.273 -124.776 -86.8574 -5.66921 199.434 -313.272 638.556
22940 2 25.9573 -28.718 -18.764 66.9776 -209.932 63.1716 48.9344 -34.8119 -89.0252 -106.343 332.017
23410 2 23.5058 -27.913 -18.4189 99.3982 -227.471 78.9453 3.87882 35.9862 -93.6122 -110.544 361.658
23212 1 27.2765 -27.9244 -19.4306 -208.94 479.984 -216.093 -59.0532 57.1431 164.414 -321.567 762.201
25428 2 27.9657 -27.2307 -18.1343 155.816 -222.315 71.0627 62.6934 -7.01414 -85.1978 -110.307 389.658
25437 2 26.7103 -26.6564 -20.2236 93.8937 -226.339 136.127 41.1611 11.127 -88.2739 -109.702 382.999
15462 2 24.1123 -26.0633 -15.478 137.298 -137.676 61.1245 5.45968 -17.4882 -101.517 -112.128 303.96
25360 1 28.0346 -25.9515 -17.2026 -364.311 320.96 -102.397 -192.616 17.9388 185.012 -313.726 757.41
20530 2 26.6945 -25.941 -16.2117 138.98 -144.812 53.1407 81.4348 -11.5738 -90.7941 -112.342 329.504
22455 1 35.0623 -31.8842 -16.1597 213.896 18.2357 17.7943 46.0788 100.371 -105.203 -349.756 328.885
27833 2 -25.0763 -28.1648 -15.3873 -55.05 19.14 72.9379 17.1718 -4.08993 -9.1167 -105.364 116.507
2797 1 29.1333 -29.9738 -15.8638 -301.794 296.723 76.4939 17.9202 43.0802 77.0343 -348.092 547.034
25142 1 34.0055 -31.2375 -18.9485 64.926 -18.8276 195.364 65.4742 -16.4858 0.209785 -360.496 220.521
28102 2 32.406 -31.0064 -18.8215 27.2001 -29.9289 -111.545 -55.6024 8.9949 22.9304 -84.4701 160.258
27775 2 34.4134 -30.9797 -17.3756 -43.9253 -3.382 -37.633 -38.8356 -10.082 11.7366 -93.5123 81.6764
27773 2 34.831 -30.1801 -19.9089 -40.1972 11.2507 -38.1909 24.9168 -25.1956 -68.6477 -89.2506 143.011
25426 2 30.0067 -30.1164 -17.3093 107.61 -110.5 -71.1745 -33.2578 -20.6829 -11.5923 -91.3382 213.415
25429 1 31.1435 -29.9481 -18.5997 -173.491 158.937 136.786 110.217 -16.56 -9.08682 -355.054 375.698
27797 2 30.3668 -29.9751 -20.1124 24.3553 -112.157 -7.13761 -69.2671 28.7698 -10.3632 -85.0518 180.354
22774 2 29.4901 -28.4667 -15.4491 174.51 -216.344 29.2512 25.1014 -0.0480141 -63.2169 -102.719 361.9
3449 2 31.8836 -28.5254 -18.3902 140.898 -100.347 -34.0791 -2.98705 5.43353 -19.4852 -96.9645 218.765
23225 2 31.5981 -27.2405 -16.2166 196.872 -142.57 8.20856 75.4904 32.3046 -60.5513 -103.984 343.513
22969 1 32.3586 -27.188 -17.6599 -325.721 181.568 19.9109 -110.628 -35.0794 96.0457 -329.592 519.182
18374 1 30.2675 -27.0588 -15.3978 -417.823 407.142 -109.884 -163.822 -16.5466 142.102 -325.698 814.412
27933 2 33.9411 -26.9476 -17.3211 95.1928 -63.4611 58.7562 30.6117 6.38632 -31.5131 -104.595 163.189
20287 2 29.2689 -26.0984 -16.198 196.97 -182.418 33.8665 94.3852 -3.52084 -95.5192 -107.631 403.476
25541 2 31.8227 -25.756 -18.2689 180.661 -116.576 23.5589 93.9192 29.1483 -87.0476 -105.964 343.624
297 2 -20.8092 -25.6958 -16.9803 174.028 -161.436 67.3447 128.432 -30.1543 0.346324 -99.1457 374.622
25061 2 -22.2422 -25.5197 -19.1829 101.342 -137.178 93.8911 99.7256 -42.7019 2.9465 -105.404 300.836
27632 2 -19.3593 -25.3284 -19.0304 132.656 -275.409 82.4559 4.29895 23.1756 52.9571 -102.92 398.286
5824 1 -22.3232 -24.6421 -20.5832 -243.203 310.409 -193.858 -175.032 68.5773 -42.3427 -319.612 626.896
304 1 -19.6748 -24.7308 -17.5423 -347.246 476.836 -174.494 -80.3483 -48.7106 -33.7346 -323.814 772.329
23119 2 -21.4239 -23.3541 -20.2473 106.901 -136.396 114.608 59.5654 -39.4772 1.73712 -109.08 276.507
693 2 -20.5079 -23.3252 -17.3458 175.506 -186.328 108.308 15.8992 -14.2738 8.30935 -110.505 335.711
27949 1 -20.0137 -22.6326 -20.6502 -141.321 246.774 -322.75 -68.5728 58.8952 45.7693 -315.802 533.614
27749 2 -24.5034 -22.6662 -18.4246 158.19 -145.21 136.173 56.4881 -17.0567 -5.92811 -112.533 310.496
2969 2 -22.8232 -22.3137 -16.2823 188.092 -151.68 117.066 74.9253 -53.4075 -38.8676 -115.49 355.37
25443 1 -21.2933 -22.0393 -16.71 -385.989 310.868 -226.547 -46.7618 91.301 40.8891 -306.936 660.687
28108 1 -24.2636 -21.9376 -16.9797 -302.973 281.122 -282.391 -164.711 4.66444 75.1434 -301.322 654.188
25436 2 -20.2715 -21.2387 -15.8119 180.525 -142.91 90.3107 6.62276 -24.9564 -53.7496 -115.242 306.982
20765 2 -20.175 -21.2242 -19.9589 88.4867 -126.298 164.776 42.5055 -20.3172 -24.699 -112.683 277.177
25630 2 -21.5685 -21.0494 -17.9794 158.635 -149.433 140.346 47.9501 -48.4583 -22.7374 -114.837 324.19
3070 2 -24.1554 -20.3515 -17.1442 171.916 -141.521 120.683 64.5877 -0.306959 -40.6608 -117.388 319.819
2785 1 -21.267 -20.2831 -19.3268 -276.765 300.691 -337.58 -94.7228 66.8526 38.5053 -305.969 645.79
5469 2 -22.454 -19.9828 -20.3256 175.244 -185.493 156.333 22.1466 -29.2007 -15.7953 -112.429 358.392
28104 2 -16.9579 -25.6533 -19.7931 82.6693 -202.839 120.547 -76.9022 19.8723 68.5887 -96.8419 356.095
20794 2 -16.615 -25.3568 -15.2012 153.565 -288.932 77.2482 -55.9396 27.245 -46.6348 -104.412 431.273
15346 2 -14.351 -25.4988 -16.2084 178.56 -222.421 21.7155 -98.4768 48.699 0.0603651 -102.215 398.375
100 1 -18.2825 -24.9088 -20.1799 -184.655 413.476 -272.407 69.7876 -16.8947 -69.6409 -330.316 669.302
5645 2 -18.6494 -23.3057 -20.1288 79.1606 -174.995 166.29 16.0096 4.4712 -7.84922 -106.754 308.78
20456 2 -18.1011 -24.187 -17.3347 149.592 -272.381 84.3167 -26.7387 59.9458 -0.807129 -109.121 409.518
5692 1 -14.1146 -24.1042 -17.0062 -396.366 437.687 -102.538 94.8916 -69.5231 71.826 -325.387 770.65
5681 2 -15.4818 -23.629 -17.5966 180.828 -213.792 58.4256 -19.4427 47.9806 -48.8983 -105.966 370.97
27832 1 -16.9551 -23.0807 -17.3146 -324.267 387.13 -124.252 34.6838 -108.208 116.355 -315.114 695.092
22928 2 -17.0248 -22.7911 -15.6563 190.401 -196.265 84.705 -31.0889 36.8187 -56.3864 -110.783 369.213
8049 2 -17.1171 -21.6396 -18.0914 163.661 -100.084 87.8313 9.7693 27.6552 -82.5537 -109.726 279.889
25527 1 -16.7793 -20.1314 -18.6076 -355.908 284.946 -254.46 -5.17708 -20.4558 135.164 -309.066 641.963
10845 2 -17.0792 -19.9016 -20.1808 155.877 -203.882 181.268 20.0909 -1.98526 -1.92356 -112.993 374.753
5208 2 -13.4232 -22.9687 -16.0952 164.656 -183.773 68.2474 -30.8526 30.5543 -59.4863 -108.618 336.717
25469 2 -13.0084 -24.3014 -18.1805 143.705 -171.343 54.554 -75.2601 15.5891 -12.8636 -98.2375 311.984
2897 2 -18.0268 -19.7441 -14.8902 212.07 -154.179 115.892 22.4008 32.2401 -45.2277 -112.129 344.853
556 1 -17.3847 -24.0214 -14.6688 -390.776 613.467 -245.102 75.4351 -30.3656 120.51 -315.984 973.057
25545 2 -11.0183 -25.2218 -19.4771 34.0963 -123.203 121.967 -122.887 -6.16971 25.8933 -91.1894 306.131
5205 2 -8.16566 -24.9638 -16.8566 60.9506 -105.422 93.5026 -76.3386 -23.7282 -0.0735343 -99.7918 230.927
651 1 -9.49795 -24.3515 -16.086 -190.697 231.022 -167.907 185.895 -15.4243 46.7805 -328.064 528.872
10368 2 -10.6963 -24.2315 -17.1193 81.4912 -125.279 73.2604 -108.139 -4.05851 -33.349 -102.516 282.114
2967 1 -11.4663 -24.0461 -18.499 -142.671 256.412 -198.546 199.221 15.6286 53.2189 -339.708 559.45
503 2 -9.06699 -22.8076 -15.8155 124.735 -123.753 119.568 -50.0205 24.3352 -44.3286 -103.928 275.076
27846 2 -11.2538 -22.5848 -19.0293 83.503 -165.944 127.182 -70.761 -5.20129 -70.6027 -100.132 324.166
615 1 -12.4974 -22.0784 -15.1651 -263.962 294.656 -230.206 94.9925 -60.9158 87.5291 -316.536 596.258
2999 2 -7.95073 -21.6312 -19.4616 92.3989 -173.833 123.026 -77.5401 -33.4124 -41.3543 -101.073 326.326
28317 2 -11.1984 -21.3849 -15.8164 132.489 -154.413 125.687 -48.1552 21.017 -54.3427 -108.184 312.328
385 1 -9.55462 -21.2765 -15.8387 -279.976 323.634 -308.769 56.1944 -50.3223 109.602 -323.045 660.047
12770 1 -11.5258 -21.1297 -19.6126 -255.87 456.441 -313.877 134.878 -11.921 138.831 -325.797 815.411
3005 2 -9.00487 -20.643 -17.226 135.078 -186.474 142.894 -24.2509 -6.97079 -67.0472 -105.989 348.377
15536 2 -10.1496 -20.2948 -19.5113 167.532 -250.739 147.968 -47.5759 1.77523 -54.1367 -106.137 427.484
758 1 -8.72094 -20.3408 -18.8223 -264.115 432.536 -270.381 67.8954 31.07 102.711 -322.882 733.554
2705 2 -12.6455 -20.3657 -18.7732 109.487 -216.394 151.981 -80.4295 5.03099 -65.8504 -109.257 392.866
3349 1 -6.84646 -25.7874 -17.2284 -63.8366 193.191 -221.316 94.2633 86.6186 -45.8348 -341.391 432.212
17564 2 -2.77197 -25.6986 -20.253 48.4974 -103.859 42.2301 -27.5589 37.764 -29.5198 -95.3268 177.392
27845 2 -5.62712 -24.7661 -17.3355 58.37 -116.697 136.471 -31.4474 -38.5014 -0.130707 -95.2147 240.489
8267 2 -1.62031 -23.6367 -19.1874 60.5981 -143.598 103.62 -60.3948 24.9502 -41.8968 -99.5194 265.345
10394 1 -5.08066 -23.2696 -17.5514 -163.157 323.312 -323.111 123.662 73.3482 31.6038 -341.463 636.446
7987 2 -3.49807 -23.0217 -17.6213 116.126 -197.966 162.756 -74.7087 -40.8678 -16.8917 -96.6133 371.597
25642 2 -5.57105 -22.8085 -18.9968 71.1236 -148.972 129.431 -91.2616 -46.6647 -17.8029 -97.534 311.68
7898 1 -2.04669 -22.5314 -18.1316 -177.977 345.858 -295.524 133.525 52.3361 85.5328 -338.232 658.367
5495 2 -5.58696 -22.1999 -16.3847 71.7013 -161.927 187.465 -67.6246 -0.803769 -33.0276 -100.571 334.698
289 1 -6.44675 -21.941 -20.0335 -142.304 311.973 -260.989 228.135 84.1931 14.4983 -337.013 672.608
15489 2 -2.28102 -21.075 -18.891 94.1996 -138.581 110.557 -52.7242 -37.3079 -24.2858 -99.6222 269.345
2907 1 -5.41811 -21.1699 -15.1024 -140.16 308.594 -337.486 130.211 -26.9311 114.771 -325.002 649.174
15665 2 -5.82341 -20.4196 -20.0385 106.732 -170.863 118.692 -72.7328 -31.8951 -3.41062 -101.672 315.403
5487 1 -1.84717 -20.2294 -20.2119 -161.931 244.19 -186.768 95.2967 13.2952 10.4732 -329.163 451.377
5655 1 -1.42604 -24.7958 -20.3119 -115.764 234.534 -124.968 110.124 -88.8435 86.0029 -339.152 456.364
10086 2 -1.24077 -23.9375 -14.882 100.301 -154.142 94.9286 -101.708 -87.1913 -36.8609 -98.9821 348.31
10292 2 -1.06124 -22.3475 -16.8253 89.4835 -164.971 147.658 -77.633 -29.717 -37.9077 -97.9808 328.596
10589 2 0.109839 -25.4356 -20.3068 85.6899 -135.197 63.12 -80.7447 16.5561 -32.5747 -96.4586 260.538
5376 2 0.957397 -24.8855 -17.7571 78.3526 -132.315 82.1039 -71.7323 9.14469 -38.5782 -99.2775 255.612
15840 2 3.11398 -24.4784 -19.2323 80.5672 -115.388 98.4768 -95.863 4.0337 -15.5865 -100.546 265.66
25521 2 3.58554 -24.0704 -15.258 72.3142 -86.8036 75.4988 -75.9274 3.77017 -59.8673 -102.125 232.218
15640 1 1.82887 -23.8022 -18.5199 -191.182 256.342 -183.055 153.457 -40.5184 77.4881 -334.755 538.788
5505 2 1.18217 -22.8979 -19.6525 89.8427 -108.739 92.1319 -79.5011 31.8219 -60.4754 -100.416 269.936
15654 2 2.42581 -22.8586 -17.2699 90.513 -113.472 83.3564 -52.4872 20.2698 -31.2254 -101.109 229.398
15351 1 2.57614 -22.8613 -15.6915 -194.164 193.754 -142.986 109.522 -10.2672 76.4865 -332.768 432.549
2805 2 1.01052 -22.8528 -15.2123 119.511 -125.905 68.1359 -51.2972 -31.4809 -25.4419 -98.8921 251.136
13096 1 -0.537031 -22.5692 -15.2967 -236.332 292.662 -193.238 147.565 129.168 37.7212 -338.819 615.258
3076 1 0.940581 -21.4957 -20.423 -168.34 224.879 -166.513 87.9789 -57.3795 92.8417 -329.978 461.37
10595 2 -0.550114 -21.1626 -20.6874 58.049 -148.896 72.7851 -31.0651 15.329 -41.524 -104.465 234.235
13186 2 1.48726 -20.4391 -19.4402 89.6285 -115.116 66.8484 -23.7914 54.8893 -41.2723 -102.411 231.564
10561 1 4.69578 -24.4177 -19.3908 -115.791 173.593 -211.177 155.496 -27.9794 16.3646 -329.948 442.869
10468 1 9.7183 -25.0989 -17.1111 -79.4489 2.82756 -212.575 105.308 -5.81406 61.0851 -312.549 282.86
10278 2 9.45157 -24.7011 -15.5501 30.3117 -19.1149 127.505 -50.0031 -16.0429 -22.8549 -108.983 162.891
22782 2 9.32403 -23.8683 -18.0687 0.769549 12.6196 82.9518 -53.6677 16.3457 -61.1568 -107.01 163.043
10556 2 5.36968 -23.2526 -18.4846 61.992 -70.8698 90.5824 -59.0258 -0.330099 -7.42806 -103.098 181.346
10355 2 8.73478 -23.1991 -20.539 -3.182 -8.30822 88.8939 -20.1918 12.5797 -55.0987 -105.581 140.647
10466 1 8.89323 -22.6334 -19.0298 -19.3377 -26.8909 -154.96 27.4083 10.9468 128.313 -325.525 263.499
13159 2 6.39849 -22.4842 -16.0907 39.7916 -51.9761 58.2035 -69.7388 -9.363 -31.1723 -105.066 167.984
18037 1 6.17964 -22.0824 -17.6271 -102.298 88.2096 -158.695 116.759 42.8177 58.8157 -327.295 327.099
13148 2 7.6762 -21.8558 -18.2947 37.7498 -11.5268 78.2387 -23.9689 -38.271 -47.1516 -103.741 137.295
20687 2 10.0889 -21.5634 -19.3433 37.4831 36.9389 49.6003 32.7955 17.8115 -50.335 -104.048 109.238