ITEM: TIMESTEP
1400000
ITEM: NUMBER OF ATOMS
29952
ITEM: BOX BOUNDS pp pp pp
-2.5128572496788230e+01 3.5113866838772154e+01
-1.0562676667243211e+02 1.1561206101443213e+02
-2.0925981953943030e+01 3.4793835098666541e+01
ITEM: ATOMS id type x y z v_StrAtomXX v_StrAtomYY v_StrAtomZZ v_StrAtomXY v_StrAtomXZ v_StrAtomYZ c_PEAtom v_VMS
2817 2 -20.1066 -33.0856 -16.8099 -74.434 60.2001 -237.443 -63.5966 -28.941 55.5587 -73.4377 300.918
405 2 -22.8453 -32.9189 -17.8369 -125.498 125.125 -218.91 8.25287 -23.478 89.1372 -82.7134 347.337
25178 1 -21.6848 -32.5326 -16.8038 181.092 -76.1271 365.661 61.56 52.4698 -115.197 -366.554 455.127
5289 2 -21.995 -32.2253 -15.2767 -80.1145 2.0211 -82.769 -29.4571 -45.5735 68.6494 -84.1572 173.042
25143 1 -18.8817 -32.0513 -16.3148 -127.243 207.552 324.669 79.7054 61.9934 -93.6459 -389.629 471.075
671 2 -17.4389 -32.292 -15.6074 120.465 -79.1406 -185.5 -14.6276 -14.5613 70.3561 -63.3325 297.511
2718 2 -8.76282 -36.2709 -20.4239 -229.879 177.261 -228.321 91.3886 -103.572 110.945 -76.7679 509.21
7612 1 -8.95536 -34.8808 -19.6064 383.378 -212.14 441.448 -129.152 225.124 -235.038 -359.748 872.013
12665 2 -7.85263 -34.4689 -18.5851 -163.26 93.8153 -175.663 20.7923 -55.7423 91.7323 -90.2601 324.489
7784 2 -10.2294 -34.1665 -18.9566 -89.6381 81.5842 -249.115 40.9612 -109.722 140.598 -84.9233 427.211
2328 2 -10.5172 -33.0312 -16.3973 -111.357 68.0366 -164.269 14.3231 -87.9756 108.656 -85.8367 322.066
7693 1 -10.7101 -32.8986 -18.0468 75.1156 -77.0251 439.242 28.9772 188.75 -293.488 -356.82 760.879
12379 2 -12.1666 -32.2394 -18.3072 66.8564 -9.62545 -243.533 -44.3604 -6.42967 106.658 -81.394 344.394
7696 1 -10.026 -32.0346 -15.2343 175.448 32.8569 145.111 -8.21832 88.9407 -252.281 -356.542 481.453
2814 2 -9.46649 -31.841 -18.4565 -60.7996 5.00337 -118.943 -45.3028 -115.494 142.652 -99.0072 344.615
7952 2 -7.13652 -32.1025 -17.5633 13.9937 -11.0441 -74.0705 -1.29904 -29.1618 172.296 -98.4012 312.715
2604 2 -6.90088 -32.7591 -19.9182 -83.2663 22.1597 -95.9483 14.1097 -51.7057 106.853 -99.8606 235.549
17670 2 -3.14506 -34.374 -19.7084 -84.8626 22.4254 -58.6167 -22.6499 -4.06682 118.026 -83.0384 229.701
2899 2 -5.31253 -34.0375 -18.1749 -13.4923 42.8354 -160.235 4.3821 35.2521 86.1406 -86.4411 242.937
5163 1 -3.86276 -33.5222 -18.544 52.9068 12.1188 202.128 16.4348 -84.5835 -237.817 -357.276 471.128
7983 1 -6.72314 -33.3791 -18.4005 51.9038 -31.0553 263.259 -16.8104 12.0177 -258.488 -345.142 520.4
7764 2 -2.75642 -33.1781 -17.3253 -15.6554 -23.897 -86.2282 -18.7644 114.416 99.0976 -86.8999 272.502
15393 2 2.56876 -33.6508 -16.6522 -57.5707 10.9137 -1.31732 -3.72657 166.242 56.2029 -93.8621 310.53
5209 1 2.37669 -32.7152 -15.3388 -78.3867 171.982 -39.9078 103.639 -337.271 -61.4787 -328.656 662.834
12686 1 3.10265 -32.5018 -17.6746 69.8316 205.165 -166.955 -5.8435 -285.436 -49.869 -334.721 598.676
17470 2 4.45188 -32.2703 -18.3686 -106.015 -86.0491 123.781 38.3917 142.413 -5.72037 -102.977 337.611
15091 2 1.93755 -32.219 -18.6882 11.665 -149.306 86.079 0.28944 144.517 70.7469 -93.0408 347.992
25514 1 -23.8961 -31.8419 -18.5648 201.161 -99.5022 338.971 -18.2467 36.1568 -172.296 -355.628 494.776
23023 2 -24.4102 -31.3307 -17.0816 -77.0549 -3.76909 -91.8057 0.727963 -51.8489 67.008 -94.8742 167.947
7949 2 -21.4275 -31.0735 -17.456 -35.1675 -74.0217 -135.299 -44.1658 -58.0135 25.533 -92.8161 159.843
25330 2 -22.7474 -31.0646 -19.4588 -76.542 6.35555 -119.818 2.12885 -45.7007 36.5659 -89.254 150.409
10375 2 -19.9305 -31.1069 -19.6706 37.2526 -68.1735 -188.722 23.3375 -113.725 -1.1588 -79.5798 280.702
22839 1 -21.2391 -30.5042 -19.0113 -23.0934 101.762 248.049 11.6175 213.84 36.5837 -355.422 443.685
7699 2 -24.1533 -29.4367 -15.4468 -26.8767 -62.9658 47.7668 -12.0895 -85.7473 40.1912 -103.909 192.12
7901 2 -21.3599 -28.9516 -18.8042 30.0837 -26.0759 -103.447 12.8845 -106.065 -68.3404 -93.1159 248.483
10315 2 -22.3873 -28.0361 -16.4366 -47.1135 4.39773 30.2652 16.013 -56.0067 11.8102 -100.038 123.503
25333 1 -22.1843 -27.8628 -18.0634 18.3115 -63.1293 35.7635 -56.7551 170.642 64.8003 -338.689 343.476
258 2 -23.5514 -27.8851 -18.8721 -32.9848 6.2995 -6.28339 7.64171 -54.858 -57.3874 -100.767 142.445
2968 1 -24.2062 -27.8001 -20.3309 67.8714 52.3616 -55.0182 -35.5319 100.046 182.743 -342.558 383.975
28055 2 -21.7165 -26.3003 -18.2504 70.0921 -11.2774 -6.71695 89.2477 -74.7766 -35.3358 -97.9058 225.137
5012 2 -24.6888 -26.285 -20.6822 15.5154 -82.1923 52.5234 6.75161 -61.5107 -80.1365 -99.9827 212.804
2510 1 -22.7814 -28.6538 -15.0175 -6.22961 82.0237 -86.3482 12.4748 63.9976 -77.677 -331.589 228.327
18082 2 -19.7512 -31.3569 -15.1158 24.7548 -141.255 -73.4554 -38.1676 5.36545 104.329 -79.7441 240.855
27833 2 34.9977 -26.7876 -15.3997 24.3472 -10.0686 55.8007 14.3728 -24.3978 -24.6153 -110.096 86.4841
28013 2 -18.5037 -31.3665 -17.6766 114.393 -139.589 -176.76 -6.97846 -82.9938 -21.9322 -74.8185 312.381
10257 2 -16.9089 -31.1014 -19.7508 90.6545 -42.9252 -287.916 1.9955 -45.5444 -29.8686 -72.1458 345.689
108 2 -14.278 -30.4796 -18.9752 123.494 -95.3091 -184.924 -73.2599 85.3846 -17.9172 -76.2661 338.304
7705 1 -18.4075 -30.737 -19.1536 -224.147 164.272 463.181 -53.193 200.687 113.754 -379.714 724.191
2998 2 -13.2781 -30.7076 -16.5555 89.5449 -103.51 -153.833 -45.7856 -9.47969 101.634 -81.646 295.067
554 1 -15.5517 -30.302 -20.0228 -174.842 141.281 464.672 76.0031 -14.9267 108.249 -384.367 599.915
25559 2 -17.0605 -29.7822 -15.7102 206.559 -124.41 -25.735 65.4379 -16.1224 71.3955 -68.5941 339.907
25038 2 -18.5315 -29.1329 -19.2171 134.358 -56.1918 -228.994 54.4173 -109.188 -64.7124 -82.4847 395.36
5396 2 -16.3119 -28.8695 -20.0938 77.9056 -81.7594 -192.018 -7.05583 -15.4023 -63.5256 -82.999 261.193
484 1 -17.6934 -28.0294 -20.0725 -195.927 101.384 311.882 -45.1779 98.0239 86.6736 -362.103 502.765
7869 2 -17.3719 -26.6092 -19.4335 90.6627 -105.845 -66.1935 -1.45259 -3.63472 33.2858 -90.5619 189.118
7880 2 -15.0081 -26.1004 -15.1061 129.294 -136.998 23.2758 -81.4597 1.37346 11.2831 -93.7892 272.423
27850 2 -14.8758 -25.8762 -19.9222 104.079 -194.815 45.9801 -54.6755 7.49554 54.1369 -91.7363 305.413
27779 2 -14.338 -28.7752 -15.1736 83.2374 -63.402 -61.8618 -56.7985 -57.6825 89.9453 -81.1415 255.363
5091 1 -13.8661 -30.2821 -15.1285 -190.652 206.127 214.877 43.5465 150.081 -225.83 -378.853 622.288
2884 1 -13.7702 -26.281 34.7434 -200.639 405.364 -129.087 115.216 -7.83783 -13.3436 -357.384 607.899
25274 1 -16.7595 -30.9904 -14.8096 -363.615 276.911 251.646 -82.1647 70.3995 -229.56 -402.035 766.775
7695 1 -12.946 -30.8376 -18.1275 -225.334 167.552 362.076 149.704 -112.919 -103.76 -371.248 637.502
5282 1 -8.13204 -30.9356 -18.1432 41.6749 -3.67217 71.9724 29.2831 171.06 -283.899 -330.766 580.087
7318 2 -10.4521 -30.6269 -16.001 -20.6578 -62.5287 -87.6907 -37.3585 -41.6934 146.685 -97.8635 278.193
7713 2 -11.6443 -29.899 -18.2787 69.2497 -39.8004 -132.436 -96.9014 9.81536 40.7373 -89.3147 253.007
17952 2 -8.9465 -29.7166 -17.5741 -3.226 2.49239 -52.0901 -36.31 -66.1029 109.834 -101.46 236.546
2811 1 -10.5174 -29.5334 -17.1624 -40.4674 5.61609 177.46 147.46 51.4327 -191.867 -339.087 472.42
5203 2 -10.8028 -28.032 -16.9187 17.9767 10.5234 -56.557 -95.5317 -9.24124 75.4394 -96.8186 223.078
10817 2 -8.78737 -26.5775 -16.8107 58.6339 -48.3995 17.1906 -93.4297 -32.0606 64.3391 -101.948 224.56
5727 1 -10.3129 -26.58 -17.1804 -107.54 85.4389 -28.3776 236.909 32.768 -108.833 -338.009 485.144
2946 2 -10.5053 -26.0077 -18.7444 57.3902 -116.744 86.12 -120.539 8.05551 11.46 -93.5653 283.423
25543 2 -12.3173 -25.8221 -20.495 102.102 -197.694 94.1317 -72.5615 38.4139 17.5507 -88.2684 329.694
7789 1 -7.29393 -26.9362 -16.1647 -130.919 112.954 -81.8929 152.147 40.3562 -150.22 -328.449 438.122
15441 2 -7.22966 -30.2061 -19.2848 -40.9096 14.7128 13.7524 -6.5092 -53.4753 79.037 -101.05 174.608
28205 2 -11.3296 -25.7326 -16.1866 92.1362 -89.4972 25.9959 -120.66 -18.1778 59.9058 -100.79 284.229
7332 2 -8.48893 -32.1311 -14.7067 -62.6253 -11.9683 -36.7551 1.3437 17.512 128.49 -87.2463 228.866
18035 2 -4.20939 -31.9882 -18.966 -1.7883 -48.7543 -64.039 -16.1191 46.5522 129.991 -97.2553 247.248
10443 1 -2.49577 -31.7854 -16.5941 -125.104 211.816 74.8899 95.2004 -235.541 -254.996 -346.83 689.077
10099 2 -3.69685 -31.3647 -15.5517 64.1431 -114.301 -1.0185 -60.2787 60.2051 140.156 -93.6478 324.293
7518 2 -2.53119 -30.6698 -17.7437 43.6557 -116.282 -28.823 -27.8829 79.2016 132.053 -98.7399 304.477
10359 1 -3.56048 -30.4856 -19.0221 -5.41626 93.2588 -32.1432 97.3295 -85.8868 -192.88 -338.264 418.623
10194 2 -2.65022 -30.5685 -20.3591 -29.3687 -55.5692 96.5807 -63.5945 -0.0267415 73.2566 -92.7095 219.276
7593 2 -4.3924 -29.2067 -18.61 14.3209 -39.9797 27.3918 -46.6601 37.0143 73.377 -100.608 174.995
10538 1 -6.64254 -29.0924 -20.388 120.959 16.5014 -130.702 55.9144 36.5719 -61.5995 -338.362 269.689
5837 2 -4.50748 -29.0521 -16.117 71.7062 -105.877 27.5996 -69.7993 20.3044 96.7401 -102.055 263.775
5210 1 -4.52451 -28.1157 -17.4067 -109.094 122.615 -51.5869 111.975 -23.9239 -119.067 -331.148 354.308
10458 2 -6.07613 -27.5887 -17.0873 47.4803 -56.47 41.844 -67.708 -20.2218 67.4027 -102.758 197.131
25448 2 -6.67342 -27.5559 -19.9253 -31.6705 -25.9417 84.1831 -53.3122 -13.547 28.7284 -97.5349 156.027
8004 2 -3.21953 -27.0949 -17.7783 73.4002 -60.6399 27.6508 -13.835 30.4542 7.08571 -99.6964 132.041
12886 2 -1.286 -27.057 -19.7341 46.3352 -51.1829 80.107 4.08562 46.926 -22.0526 -93.472 148.522
13310 1 -1.59426 -26.8663 -18.1558 -162.212 114.932 -45.9702 12.941 -100.006 52.9545 -338.162 311.487
662 1 -6.44807 -25.9125 -20.0462 -2.47101 122.578 -196.639 90.4993 27.5875 0.350141 -342.052 323.223
7489 1 -4.68964 -30.2301 -15.0241 -163.803 295.015 -114.264 123.875 -37.6927 -262.298 -338.732 668.533
15095 2 -1.25323 -31.5062 -15.6867 120.131 -141.134 -30.5601 -80.7403 137.752 99.1404 -94.7494 396.947
90 2 -6.03861 -31.045 -14.8247 56.3632 -120.516 29.464 -24.8284 20.6709 142.269 -94.0539 301.835
12900 2 -0.247776 -31.7556 -20.26 30.6692 -167.055 125.399 -0.966851 58.3977 132.283 -88.1268 359.901
15245 2 3.22803 -31.6332 -16.2433 50.9877 -118.329 88.7939 -33.6723 140.441 -1.46067 -109.304 314.766
10250 1 1.02582 -31.1603 -19.6128 -137.687 318.438 -277.094 -9.81532 -195.481 -176.568 -355.184 706.772
17340 2 2.05577 -30.7397 -20.7664 -18.8992 -130.223 198.59 62.801 110.816 36.3949 -90.4209 369.53
7896 2 0.58901 -30.193 -18.4528 95.6117 -104.729 47.6793 -60.0651 78.274 65.9399 -93.74 274.006
10494 2 0.671866 -29.7464 -15.8424 130.55 -99.3791 23.0248 -104.387 100.128 19.5238 -101.703 321.895
5281 1 0.53968 -29.0575 -17.3247 -223.523 92.8717 34.1349 136.578 -145.887 -4.88901 -338.471 452.608
2960 2 1.95514 -28.3478 -17.6017 114.182 -23.9004 13.5134 -72.3757 42.1733 -45.3088 -99.4219 206.178
12929 2 -0.678449 -28.0294 -17.4265 99.1559 -43.5869 -36.8261 -38.7943 67.44 -10.4512 -98.7093 194.79
8108 2 3.78302 -27.4892 -15.8152 108.048 -39.8258 104.791 -106.504 62.3862 -81.8017 -108.191 295.255
10372 1 2.90201 -27.1571 -17.1913 -244.939 103.595 -110.474 194.626 -71.8609 181.449 -328.521 566.208
3094 2 4.17683 -26.6658 -18.1562 81.3018 -62.639 111.792 -88.6237 19.8998 -105.419 -106.62 290.047
20417 2 4.82328 -26.4735 -20.7099 17.3903 -79.0817 147.261 -64.5369 82.4869 -43.6528 -108.692 278.076
15359 2 1.87619 -25.9247 -16.9889 106.345 -63.3492 50.9857 -102.824 15.4015 -70.6284 -103.455 264.314
7707 1 -0.00240401 -30.8804 -14.8645 -278.532 315.352 -40.4216 250.684 -245.948 -159.151 -335.992 844.968
13053 2 4.98904 -29.7145 -19.5923 -81.0078 -59.3423 169.911 75.4559 111.279 -72.4458 -106.185 357.727
7858 2 6.20061 -31.4381 -20.3116 -152.941 -20.6788 141.21 63.1008 129.325 -10.6747 -98.072 357.177
17971 2 7.05524 -31.4456 -15.2079 -133.091 11.7959 137.288 61.9621 7.55019 -87.4852 -130.111 299.287
12868 1 5.49265 -31.1128 -18.8851 229.787 154.41 -328.011 -165.886 -256.658 102.846 -319.822 765.952
15259 2 6.33269 -30.6864 -17.6605 -85.576 -43.2775 170.101 91.1236 101.429 -78.3419 -116.739 361.292
2977 1 6.98504 -30.2314 -16.2462 106.919 15.636 -327.897 -183.543 -61.544 211.323 -282.962 635.693
20277 2 8.49852 -29.7961 -16.3849 16.9508 -42.5081 120.049 141.754 -18.8818 -116.093 -126.65 349.398
12789 2 6.06224 -29.0153 -15.6939 -0.0430226 -3.99077 155.087 15.249 27.2232 -100.56 -123.827 240.731
15374 1 9.42198 -28.5188 -16.0185 -170.615 168.931 -270.155 -235.542 70.0273 240.933 -274.383 717.144
17386 2 8.99568 -27.4483 -17.1275 71.9326 -98.2977 151.999 70.5211 7.49427 -149.925 -128.622 362.684
573 2 9.39261 -26.7601 -19.5069 61.3592 -177.202 145.551 60.0091 68.2494 -129.016 -126.695 398.493
3178 2 6.84343 -26.4964 -18.773 84.0292 -97.9821 150.811 -27.1221 62.8867 -112.625 -117.78 319.166
5881 1 8.3928 -26.3718 -18.2461 -143.93 214.797 -329.783 -33.9935 -81.0138 235.482 -285.847 647.617
494 1 5.29077 -26.0659 -19.1147 -162.532 169.584 -271.876 177.811 -116.273 187.47 -312.883 631.993
12782 1 4.96903 -28.1702 -14.912 -130.21 -0.198422 -269.078 144.417 -45.6323 152.851 -299.784 439.485
17777 2 11.0937 -28.8197 -16.0048 121.113 -126.849 64.5794 110.995 -45.8902 -88.7138 -129.614 342.857
20589 2 13.8743 -29.0939 -15.4231 115.554 -158.402 40.7158 76.6636 55.7282 -54.1277 -121.287 309.659
12961 1 12.6157 -28.8704 -16.3112 -210.054 241.453 -50.0819 -178.145 15.5557 155.061 -279.812 570.338
12582 2 12.8112 -28.3391 -17.719 94.9731 -129.869 35.9407 75.7575 4.60958 -112.807 -127.991 310.199
18063 1 16.4981 -27.5056 -19.2772 -291.599 335.818 -1.46552 -84.2692 171.873 128.698 -303.497 674.84
5615 2 14.9984 -27.517 -18.5371 156.703 -209.603 28.9491 74.7178 -45.85 -100.953 -123.43 396.653
15165 2 15.9831 -27.0412 -20.7672 134.55 -207.844 80.6637 34.7176 -70.2218 -76.9345 -109.892 371.285
20366 1 13.4535 -27.0364 -18.3506 -298.215 358.31 -139.018 -179.089 -14.9202 275.01 -275.125 821.966
10374 2 12.9192 -26.2779 -19.6231 159.047 -230.381 84.9086 77.5204 49.7855 -153.007 -127.003 473.261
28026 2 13.2403 -25.93 -17.1482 148.891 -146.26 109.013 85.4581 12.5411 -90.9945 -130.711 352.357
10592 2 16.5302 -25.5773 -16.1694 161.811 -200.139 169.32 126.766 46.1677 -64.0367 -122.004 447.981
12978 2 16.2281 -27.8098 -14.9275 141.255 -177.001 155.636 71.4322 128.768 -103.562 -118.078 450.886
20534 1 16.3101 -26.1868 -14.7439 -305.721 335.045 -326.962 -206.724 -212.328 189.13 -292.549 891.856
10296 2 17.7067 -28.5776 -19.4717 61.547 -69.776 -56.6444 13.2984 -112.128 -21.9961 -103.84 235.358
186 2 20.1518 -28.3762 -18.3545 130.245 -105.637 58.6605 54.5487 26.8504 -57.678 -96.3878 254.851
20257 1 19.2721 -28.3647 -19.6201 -122.838 167.099 81.5881 -73.6846 150.85 66.2479 -333.884 405.345
15287 2 19.7146 -27.9807 -21.0254 6.05136 -138.748 22.8154 60.0564 -99.6084 -44.3274 -98.6338 264.87
285 2 17.2841 -26.2517 -18.714 153.88 -216.64 59.8341 79.3095 -59.7574 -66.6504 -119.802 392.675
25535 2 21.6228 -26.4266 -20.652 112.739 -226.971 136.69 90.676 -6.03651 -37.9465 -105.582 391.419
20478 2 27.553 -28.7916 -15.7644 163.021 -141.761 -36.7768 25.0395 -64.8119 -49.0371 -96.4987 305.963
25504 1 26.112 -28.1437 -15.2487 -246.816 359.394 -116.478 -119.14 150.229 220.336 -320.43 749.266
20514 2 25.2418 -27.6394 -16.5278 68.8886 -196.708 67.3164 53.3482 -51.8113 -107.156 -111.328 348.088
25136 2 27.8164 -27.4859 -20.3501 55.9565 -210.836 102.265 -24.9779 -41.0116 -44.8083 -95.2797 314.035
20450 1 24.6584 -26.9569 -17.7991 -175.84 461.241 -162.99 -73.6301 21.2699 206.697 -310.907 737.321
22940 2 25.8261 -26.7611 -18.7566 127.498 -254.047 101.406 43.1617 -49.8348 -100.425 -108.638 423.789
23410 2 23.2805 -26.5179 -18.494 134.017 -246.798 111.779 23.5819 49.8308 -89.7472 -110.438 412.707
23212 1 27.2315 -26.3313 -19.4588 -272.568 525.073 -269.256 -28.0459 96.8598 180.385 -320.784 872.767
25428 2 28.0103 -25.8375 -18.0924 193.703 -245.569 84.2656 36.7881 -26.99 -96.7552 -112.074 437.258
22455 1 34.9891 -30.2784 -16.2458 80.1959 124.753 -54.6818 19.0707 151.649 -107.317 -336.761 361.692
2797 1 29.2634 -28.5283 -15.9262 -359.785 333.72 55.918 47.0459 74.77 79.1518 -342.156 638.492
28124 2 34.8114 -31.3258 -19.2072 -84.5433 37.3571 -130.795 9.09445 8.58927 77.721 -86.8463 203.047
27773 2 34.8188 -28.859 -20.1313 -6.83688 -40.9161 -25.809 5.60307 -20.5603 -57.2622 -91.7871 109.882
25142 1 34.0274 -29.8475 -19.005 -17.1461 71.9219 154.236 67.1322 -8.95667 -22.9363 -350.636 193.337
28102 2 32.3772 -29.485 -18.8372 62.3784 -112.953 -98.4435 -57.5822 8.50682 0.0468719 -89.1988 196.397
27775 2 34.3811 -29.3804 -17.4644 6.15477 -46.1034 -12.7594 -38.0068 -29.9968 20.978 -99.3316 102.242
25426 2 29.9162 -28.7052 -17.4534 107.841 -118.763 -52.3684 -52.4541 -21.3244 -9.54501 -93.5987 224.954
25429 1 31.0813 -28.5064 -18.7146 -201.357 221.633 86.2271 144.533 -3.29853 -0.625859 -349.223 450.203
27797 2 30.1927 -28.4806 -20.0972 29.9839 -131.174 2.08204 -76.3504 24.8608 -19.3766 -87.7969 206.694
22774 2 29.5455 -26.9897 -15.476 208.004 -252.994 29.8107 15.9163 -8.30277 -94.2155 -106.83 435.571
3449 2 31.741 -27.0781 -18.287 153.072 -121.81 -12.5019 -25.5259 -7.00526 -27.043 -100.953 248.511
23225 2 31.6632 -25.7089 -16.0619 215.925 -179.095 17.2358 59.8819 7.73355 -90.6014 -108.721 390.634
22969 1 32.3184 -25.7855 -17.5361 -393.674 243.042 -33.2513 -78.8057 -32.3725 129.894 -321.544 614.994
23301 2 33.9944 -30.6874 -15.1317 -75.1852 -57.867 52.449 10.4269 -69.6842 26.2148 -94.8368 177.018
2966 1 -25.0669 -25.452 -16.3185 -119.565 118.704 -185.744 -38.8051 45.7312 70.6903 -312.149 320.474
25614 2 -23.6579 -25.1855 -17.0451 59.509 -82.3916 96.213 59.6042 -72.7639 -42.1198 -108.09 241.982
25419 1 -22.214 -24.8447 -17.7871 -239.548 173.376 -129.02 -222.417 131.316 77.3639 -326.461 595.969
297 2 -20.9602 -24.1697 -17.031 195.52 -151.54 69.9368 130.236 -30.5676 -32.8276 -103.932 386.727
25061 2 -22.3991 -23.9469 -19.1974 139.209 -150.995 90.2912 96.7915 -50.6598 -18.2741 -107.32 330.487
5824 1 -22.4568 -23.1169 -20.5467 -342.112 388.164 -220.303 -169.266 74.1367 -15.9791 -318.783 749.929
304 1 -19.7803 -23.289 -17.6018 -366.975 416.999 -157.6 -121.422 -29.6932 7.51354 -318.178 735.767
23119 2 -21.5379 -21.7739 -20.2364 150.787 -170.402 125.918 75.8702 -29.6133 -3.24554 -110.888 340.183
693 2 -20.5341 -21.8726 -17.3135 185.6 -192.458 86.1576 60.2008 -6.9536 -17.0568 -114.129 356.528
27949 1 -20.0382 -21.1975 -20.6547 -152.099 304.277 -354.474 -99.3928 53.9214 35.3948 -311.974 619.445
27749 2 -24.5393 -21.4057 -18.1701 202.826 -185.063 116.986 69.5659 -7.23953 -33.1065 -115.004 377.483
2969 2 -22.7877 -20.9108 -16.25 250.092 -165.929 48.7478 95.276 -50.2476 -61.9236 -116.393 419.715
25443 1 -21.2254 -20.5497 -16.7525 -454.063 329.782 -152.566 -117.303 63.2856 86.5672 -301.821 738.08
28108 1 -24.2599 -20.4819 -16.865 -394.584 305.42 -182.654 -194.86 20.1464 115.004 -299.731 735.781
25436 2 -20.2424 -19.8423 -15.6459 202.532 -161.209 78.2241 35.2296 7.1128 -68.6749 -116.485 347.23
20765 2 -20.189 -19.7294 -19.9825 105.726 -140.788 173.513 57.6564 -14.771 -22.0442 -115.471 306.855
27632 2 -19.4394 -24.0162 -19.0477 142.639 -185.829 71.0005 16.9262 -15.9709 32.8351 -104.266 307.167
2791 2 34.9752 -24.2541 -15.1388 33.8732 -93.1272 109.277 49.039 14.6278 -57.1419 -118.417 221.457
27533 2 -23.9915 -23.6482 34.7867 129.377 -196.929 89.0064 10.2997 -48.2357 -10.0487 -107.508 320.208
374 1 -16.2587 -25.5239 -19.0505 -199.785 352.588 -95.7766 123.478 -59.4197 -184.003 -346.445 645.28
14921 2 -15.8589 -25.3468 -17.5237 115.292 -193.987 75.4622 -66.6856 57.7776 90.4524 -94.6902 364.447
2896 1 -15.4644 -24.8778 -16.0576 -300.77 412.468 -159.379 153.29 -94.7088 -47.0353 -335.342 729.312
28104 2 -16.9028 -24.17 -19.6119 120.722 -214.261 103.308 -65.228 13.0302 70.6467 -99.3752 367.328
20794 2 -16.639 -23.9818 -15.3698 173.508 -271.542 88.7501 -40.5717 41.8163 -25.624 -106.27 423.893
15346 2 -14.3018 -23.7058 -16.2214 186.065 -209.252 66.517 -57.7665 36.8414 4.92755 -105.749 370.761
100 1 -18.3304 -23.582 -20.0865 -234.721 386.793 -239.924 104.456 5.02414 -79.2008 -327.828 664.204
20456 2 -18.1951 -22.6993 -17.4709 170.747 -236.401 80.4575 -3.73902 56.8952 5.97717 -110.618 383.433
5692 1 -14.1115 -22.2872 -16.9298 -424.71 397.227 -160.122 43.2011 -32.5283 53.7554 -320.199 738.617
5681 2 -15.6094 -21.8093 -17.3372 214.344 -189.994 61.5538 -12.951 44.5202 -47.1492 -108.654 371.718
5645 2 -18.743 -22.0329 -20.1622 97.062 -173.496 165.255 9.71338 -1.14857 0.108967 -108.482 310.788
27832 1 -17.184 -21.3909 -17.1725 -390.966 360.135 -134.77 3.70993 -126.495 116.284 -309.368 725.238
22928 2 -17.4421 -21.5014 -15.5779 204.909 -209.835 91.7525 -11.8815 63.3399 -76.464 -113.935 409.739
8049 2 -17.2842 -20.0444 -17.9186 190 -143.208 82.2848 27.7797 38.1516 -74.4047 -114.183 331.705
5208 2 -13.4488 -21.184 -15.9743 186.427 -177.356 93.7434 -11.0994 21.1945 -56.6323 -111.717 344.311
25469 2 -13.0624 -22.4347 -18.1384 151.324 -165.906 107.317 -26.327 -3.17459 -14.3284 -102.083 302.22
3146 1 -10.9992 -25.1299 -19.9572 -153.457 337.478 -252.344 203.92 -14.1232 -33.5663 -353.397 654.271
25545 2 -11.1168 -23.5986 -19.3972 42.9596 -123.685 136.553 -80.2185 -6.02202 20.7585 -94.7471 269.877
5205 2 -8.11508 -23.468 -16.9385 113.558 -81.0852 63.4314 -80.5691 -28.5441 -3.58927 -101.914 229.345
651 1 -9.29077 -22.7381 -16.1687 -251.11 163.024 -181.874 176.537 13.3893 53.2284 -323.93 500.161
10368 2 -10.5733 -22.6449 -17.1151 89.8036 -123.39 87.4395 -85.9385 -9.25247 -28.0289 -105.188 264.051
2967 1 -11.4617 -22.384 -18.3943 -161.751 254.163 -232.697 104.201 14.4987 42.2542 -331.584 496.07
503 2 -8.92518 -21.2404 -15.8384 148.551 -126.458 128.778 -47.6872 7.04783 -37.214 -108.387 285.848
27846 2 -11.3002 -20.8932 -19.0172 89.0326 -157.043 158.726 -34.4459 -4.46711 -66.9867 -105.454 315.66
615 1 -12.4593 -20.5367 -14.8965 -299.099 311.838 -307.678 29.933 -44.965 75.2413 -307.674 635.842
2999 2 -7.77887 -20.1908 -19.3409 140.874 -197.5 130.598 -99.4483 -39.1986 -43.7935 -107.258 388.791
28317 2 -11.0972 -19.894 -15.5608 129.243 -165.675 167.691 -24.0674 4.41014 -46.3338 -113.775 328.68
385 1 -9.49456 -19.6852 -15.8013 -289.23 358.038 -363.699 49.2045 -24.7335 99.735 -309.341 715.292
12770 1 -11.4583 -19.4644 -19.6916 -268.088 461.698 -366.53 83.8336 -1.00806 95.8407 -312.77 814.103
10481 2 -4.90035 -25.6367 -20.2781 -3.81716 -47.3377 55.8619 -16.5157 -33.5322 -23.8483 -97.5625 118.113
28136 2 -6.70329 -25.4368 -16.096 69.5792 -91.5709 84.6596 -73.2658 -13.2861 61.6344 -103.067 238.026
7782 2 -6.74234 -24.9593 -18.6974 23.1769 -98.0887 95.4197 -69.0444 -47.1992 3.44011 -98.5731 222.946
3349 1 -6.72388 -24.3065 -17.2394 -140.33 137.796 -176.377 108.558 87.8727 -35.5652 -333.051 388.578
17564 2 -2.45832 -24.1402 -20.2314 63.8069 -82.4622 74.764 -22.0778 29.732 -35.0308 -102.395 175.821
27845 2 -5.65069 -23.0987 -17.084 66.1541 -87.8489 133.975 -40.7556 -24.4109 -0.425288 -102.187 213.383
5655 1 -1.24619 -23.0885 -20.2869 -192.483 253.608 -187.651 127.316 -62.2134 73.3054 -320.716 522.709
8267 2 -1.55284 -22.153 -19.0773 96.2006 -157.622 143.156 -78.4324 3.36641 -33.5277 -109.358 316.876
10394 1 -4.96147 -21.7377 -17.4609 -208.67 310.993 -351.087 143.391 54.8153 20.827 -324.117 660.561
7987 2 -3.37473 -21.6487 -17.4664 82.9765 -196.285 162.32 -87.6644 -59.3411 -25.3083 -107.677 376.803
25642 2 -5.48187 -21.3843 -18.9588 100.566 -159.205 139.604 -102.749 -37.0059 -20.6159 -105.163 340.883
7898 1 -2.0671 -21.005 -18.0654 -205.611 384.391 -357.514 163.129 70.5021 78.7559 -315.512 757.728
5495 2 -5.50435 -20.6087 -16.388 118.067 -184.203 188.332 -95.2352 -4.47211 -24.6746 -108.608 382.935
289 1 -6.2807 -20.4282 -20.012 -231.169 373.531 -300.233 271.136 56.629 21.5394 -322.174 802.342
2907 1 -5.2834 -19.654 -15.0629 -246.851 355.219 -390.466 217.816 49.1868 61.3404 -308.724 794.014
603 1 -3.74811 -24.7148 34.7287 -23.8662 101.242 -164.341 14.781 -24.6477 39.3724 -336.994 245.13
10292 2 -0.994927 -20.8023 -16.8893 87.3617 -175.362 161.104 -81.8668 -30.8949 -52.3827 -109.334 353.606
15489 2 -2.41575 -19.5632 -18.8559 120.533 -152.133 143.795 -55.2801 -40.7828 -25.0563 -109.677 311.884
10086 2 -1.17353 -22.4185 -14.7876 114.777 -161.639 102.371 -116.681 -85.1451 -46.1014 -110.2 376.96
17969 2 -3.75007 -19.4782 -14.669 93.3924 -166.704 163.925 -97.7409 -51.5986 -23.8803 -113.35 359.622
5568 2 -0.647593 -25.5334 -17.7876 70.2881 -71.3578 55.7457 -36.0861 24.9531 -41.336 -102.031 170.633
8152 1 0.607388 -24.8781 -17.0102 -180.424 156.556 -155.428 176.297 21.7936 85.2223 -324.904 471.393
15370 2 0.11113 -24.4581 -15.577 89.0091 -111.464 103.342 -100.688 -34.2163 -30.3065 -106.126 282.755
10589 2 0.252682 -23.733 -20.28 102.144 -144.988 84.5764 -73.0409 13.3148 -34.8251 -106.427 277.878
5376 2 1.19322 -23.5646 -17.6486 96.6623 -127.261 109.748 -86.2377 -16.6493 -47.5135 -108.282 288.371
15840 2 3.31119 -22.9719 -19.2878 110.787 -138.082 95.0918 -100.669 6.24767 -16.9538 -110.403 299.43
25521 2 3.70084 -22.7303 -15.309 124.967 -104.446 99.3428 -91.3181 30.2412 -71.8998 -108.195 301.127
15640 1 1.96848 -22.4229 -18.5406 -241.222 286.444 -238.057 193.924 -10.196 72.6008 -314.853 636.958
5505 2 1.17557 -21.4265 -19.5088 104.864 -128.281 107.683 -100.295 18.2103 -50.0494 -111.065 306.119
15351 1 2.63421 -21.5214 -15.6846 -274.308 226.171 -159.688 112.17 -25.9602 73.9822 -318.87 512.289
2805 2 1.06377 -21.3882 -15.1749 134.967 -147.105 73.0181 -38.0154 -19.9336 -36.4027 -107.455 274.648
15654 2 2.55236 -21.4889 -17.299 114.087 -138.564 109.284 -45.9879 10.6076 -17.846 -109.072 265.103
13096 1 -0.528754 -21.0406 -15.3275 -288.558 310.586 -211.145 166.383 136.497 54.7091 -317.522 683.014
3076 1 1.01841 -20.023 -20.3069 -187.784 197.881 -182.547 114.659 -27.2301 67.1388 -312.125 449.369
10595 2 -0.536767 -19.7338 -20.4634 87.797 -138.501 99.6552 -31.8074 10.6707 -23.365 -112.752 243.001
10561 1 4.89967 -22.9575 -19.3669 -232.847 220.898 -199.306 162.693 -61.0791 30.3664 -313.764 533.999
10511 2 8.76713 -24.8699 -17.668 64.5125 -43.9868 138.499 -20.9136 26.4286 -71.716 -121.124 210.026
15405 2 5.3349 -24.4562 -19.0905 104.569 -87.0076 110.739 -106.836 48.4013 -59.6167 -111.453 299.757
10468 1 9.72848 -23.6628 -17.1822 -110.152 18.5973 -257.947 86.3262 -41.4053 96.782 -298.896 336.227
10278 2 9.48624 -23.2902 -15.5589 49.1497 -14.7162 152.527 -42.4955 -3.27142 -34.2254 -116.216 174.161
22782 2 9.37752 -22.3324 -18.056 41.788 2.12693 99.2981 -47.6496 26.462 -70.1983 -113.279 175.661
15575 2 5.38243 -22.5862 -20.8197 109.473 -127.119 100.41 -52.839 38.9622 -21.0885 -110.197 261.109
10556 2 5.52991 -21.8553 -18.3788 114.026 -108.524 94.8873 -71.438 23.2224 -2.9305 -109.416 250.178
10355 2 8.67246 -21.5936 -20.6141 45.698 -38.0417 86.6253 -1.59528 28.4305 -67.1056 -110.965 167.501
10466 1 8.96493 -21.1353 -19.1402 -87.921 5.03809 -164.831 -2.86513 -26.77 137.197 -313.181 283.46
13159 2 6.49908 -20.9136 -16.2111 103.377 -68.8789 81.9448 -70.7323 6.23425 -52.7596 -109.28 223.419
13148 2 7.65518 -20.4045 -18.5273 96.3858 -45.8657 76.2651 -13.3192 -13.5906 -33.2802 -108.789 148.954
18037 1 6.2017 -20.5227 -17.7568 -228.686 127.435 -158.328 101.63 3.83712 39.4706 -318.442 377.386
20687 2 10.255 -20.1978 -19.3081 47.2959 -0.706299 54.2399 34.2346 15.303 -61.4435 -109.912 135.019
25727 2 15.2289 -24.6208 -20.0434 160.394 -181.673 76.6201 90.1302 -11.442 -142.512 -119.817 425.516
17942 1 12.8482 -24.359 -16.9606 -278.378 189.369 -228.684 -84.9575 -23.1102 90.7952 -288.43 495.983
10493 2 13.1342 -24.1008 -15.4155 146.497 -96.654 107.56 45.7335 11.1456 2.11975 -120.069 240.482
13027 2 16.5285 -23.8795 -18.0283 164.003 -116.565 101.706 122.867 7.61024 -74.4403 -119.027 356.661
10282 2 11.2756 -24.0869 -17.2531 97.7534 -54.4154 113.909 -5.43492 13.7074 -47.4679 -121.641 182.446
18163 2 13.9321 -23.63 -17.9208 141.696 -65.496 88.2896 74.8044 3.01424 -79.2665 -119.016 265.291
13093 1 15.2123 -23.4806 -18.9052 -269.523 137.186 -140.742 -204.094 1.25955 234.21 -299.436 647.418
20458 2 15.324 -22.0751 -19.6231 97.7947 -4.4935 57.8412 63.2644 18.4681 -118.061 -111.976 250.635
20451 1 16.1389 -20.8503 -20.324 -169.044 70.7157 -128.616 -6.841 -83.3921 149.74 -313.282 371.074
12586 2 16.5886 -21.3389 -14.762 95.7294 4.93869 42.227 30.8282 16.5502 -59.1167 -113.877 142.847
18128 2 14.8516 -25.726 -14.3253 175.742 -143.516 137.517 88.2056 72.609 -62.8244 -122.351 377.068
18020 2 21.458 -25.6738 -15.9107 179.38 -234.242 163.633 -12.8332 -11.6632 -154.675 -114.267 487.333
20439 1 22.2152 -25.6859 -19.3793 -341.504 464.572 -272.511 -110.736 -77.6696 134.278 -312.417 841.357
20522 1 17.3455 -25.1676 -17.4852 -377.548 398.348 -264.608 -265.778 -12.0998 121.755 -294.508 885.419
17768 2 20.9563 -25.352 -18.3977 214.789 -233.006 129.136 62.1279 18.2448 -56.0352 -113.807 437.607
22872 2 18.8768 -25.2021 -17.0689 222.079 -227.619 146.657 115.638 7.3264 -68.1478 -115.966 477.712
20150 1 20.4368 -25.03 -16.9434 -457.371 464.322 -306.528 -101.409 -12.0519 189.837 -305.56 934.152
17854 2 20.6299 -23.4638 -16.6181 167.188 -166.898 127.681 27.2613 -33.5104 -93.5615 -116.59 363.091
13234 2 19.7581 -22.2417 -18.7591 161.291 -160.079 110.941 55.9696 -19.0699 -46.5315 -115.361 326.523
23063 2 18.6452 -23.548 -20.8107 163.8 -178.549 124.32 71.624 -45.605 -63.4471 -113.351 372.762
23044 1 19.0435 -22.063 -20.2105 -346.608 295.081 -199.302 -83.7953 43.6945 111.469 -309.287 634.829
25609 1 20.0775 -22.1075 -17.2058 -293.67 225.488 -238.124 -91.2931 69.8615 100.394 -303.811 560.05
20481 2 18.7009 -21.7004 -16.4693 117.674 -66.8127 117.782 37.4293 -20.4289 -38.2445 -114.706 209.519
1079 2 17.6792 -21.3738 -20.1065 149.556 -79.9097 64.1187 6.9929 8.15866 -61.5011 -111.459 228.129
17657 2 21.2706 -21.0609 -16.9234 137.869 -88.25 93.4854 40.2181 -52.0014 -31.4514 -114.227 242.891
17666 1 17.897 -20.6966 -15.4524 -207.103 64.4481 -165.673 -19.3417 -9.21258 113.864 -305.56 323.231
18351 1 22.7633 -20.7828 -17.5209 -327.959 196.771 -134.762 -82.6526 55.9151 46.6085 -308.249 497.676
27849 2 17.2404 -19.4695 -16.1624 99.8467 -68.0886 101.063 -32.5926 18.3236 -60.7262 -114.485 208.962
23125 1 22.7305 -25.3107 -14.9172 -336.906 396.855 -252.598 36.6095 140.885 341.211 -300.149 946.832