ITEM: TIMESTEP
380000
ITEM: NUMBER OF ATOMS
29952
ITEM: BOX BOUNDS pp pp pp
-2.5128572496788230e+01 3.5113866838772154e+01
-7.2440942519402483e+01 8.2426236861402487e+01
-2.0925981953943030e+01 3.4793835098666541e+01
ITEM: ATOMS id type x y z v_StrAtomXX v_StrAtomYY v_StrAtomZZ v_StrAtomXY v_StrAtomXZ v_StrAtomYZ c_PEAtom v_VMS
498 2 -22.0536 -71.4778 -15.4877 -16.3666 -147.735 101.983 -72.1535 49.4015 -62.1025 -87.7146 285.169
286 2 -22.6073 -71.3511 -17.9936 -46.3186 -44.7131 38.5156 -64.5527 36.2333 -7.71842 -90.9712 153.888
301 1 -22.4766 -70.7189 -19.4308 182.977 87.4939 -135.916 144.496 -35.988 -14.4408 -346.301 384.07
5212 1 -22.2749 -70.4135 -16.688 53.2236 245.231 -78.8951 246.377 -105.012 117.839 -353.71 580.117
27644 2 -19.7003 -70.9783 -15.1655 -47.4107 -199.922 53.7057 -115.296 46.8232 -14.7523 -95.7175 309.863
27752 2 -21.0215 -70.5311 -20.1475 -64.2348 -70.9909 87.2426 -80.337 34.506 -21.4479 -96.0181 219.838
2689 1 -20.7306 -72.2714 -15.1897 44.5948 318.264 -243.397 133.581 -91.7954 71.4573 -350.672 575.133
22966 2 -23.2563 -69.3614 -18.9166 -86.5387 -40.5422 15.0432 -105.159 -25.9114 -7.53843 -92.4541 207.658
5179 2 -21.0067 -69.6068 -17.32 -51.3726 -97.4119 15.4459 -127.896 61.1077 -77.4889 -91.9427 296.562
4880 2 -23.1851 -69.425 -15.848 -29.036 -130.624 5.72327 -137.107 18.8436 -77.3701 -85.9665 300.796
2690 1 -24.4746 -68.4374 -18.4103 83.6499 42.1436 83.0425 199.227 122.875 39.5922 -356.46 413.242
7600 1 -19.9296 -68.411 -17.6683 128.572 46.5255 33.8325 182.813 -127.392 130.961 -366.239 456.436
12696 2 -19.3625 -68.4375 -16.1008 -100.075 -8.53751 -17.3092 -74.2875 67.1435 -67.2456 -80.8221 226.494
7 2 -24.6889 -67.7412 -14.7342 -62.2549 -7.70259 -66.4952 -146.551 33.8569 -56.1632 -76.4577 283.828
112 1 -24.1803 -69.2345 -14.5299 60.9508 239.623 -74.8104 264.769 -119.655 234.006 -377.121 701.533
5498 1 -18.9023 -69.553 -14.9893 160.976 175.842 -112.514 167.504 -85.1129 123.105 -359.573 480.057
2790 2 -20.4584 -67.3089 -18.8964 -98.9499 23.3737 -41.5567 -66.3619 32.5108 -45.3697 -81.2055 183.832
7892 2 -23.8181 -67.1038 -17.7983 -99.9423 6.25386 -92.2045 -110.834 -56.4473 -26.0202 -86.69 242.814
22658 1 -21.4436 -66.3455 -19.8499 282.567 -73.8665 51.9952 76.1992 55.6821 44.4426 -373.727 361.484
7389 2 -23.1145 -71.6613 -20.5671 -89.994 -44.7731 31.9639 4.85886 29.2458 -25.3644 -93.831 126.374
10199 2 -15.3379 -71.4513 -16.1241 130.236 -177.069 -0.411991 -0.327686 6.0341 -90.6219 -94.2038 310.005
5103 1 -16.6347 -71.5533 -15.222 -98.4504 337.659 -124.327 126.724 -14.3123 139.681 -341.443 556.3
27842 1 -14.8029 -71.0406 -17.5935 -304.579 383.868 34.8679 -23.9871 -93.9121 133.768 -349.382 661.331
5105 2 -17.9437 -71.0685 -19.2289 4.20642 -163.053 91.8011 -73.3461 62.1055 -67.1304 -94.7243 302.538
22487 2 -17.402 -70.0893 -15.2841 -11.4436 -102.176 32.6631 -60.5849 6.84391 -52.846 -89.0861 183.603
10404 2 -13.2308 -70.6474 -17.3774 147.246 -155.205 -64.7276 56.6884 60.7975 -50.8664 -93.9635 317.474
22476 2 -14.8595 -72.2298 -18.707 126.147 -212.942 45.7425 -20.0079 76.4909 -59.3333 -94.7404 351.421
5261 2 -15.9301 -69.9309 -18.2097 80.6654 -126.736 -35.5572 -27.5364 59.7244 -66.6999 -86.6192 242.365
5017 1 -17.2982 -69.5975 -18.9398 -26.3913 188.727 -52.8993 134.628 -112.585 142.489 -362.493 453.861
27570 2 -18.5123 -68.8186 -18.2669 -25.3616 -41.6157 -1.36426 -84.526 46.3406 -62.1262 -83.5108 201.706
2801 2 -17.0079 -68.9298 -20.38 -16.1518 -45.6781 10.4967 -50.6966 58.4769 -92.4421 -82.0573 214.417
5100 2 -11.23 -71.1406 -15.5204 90.2181 -111.4 1.93573 115.408 88.0862 -70.4941 -99.0139 329.828
9902 1 -11.7069 -70.8998 -17.0621 -174.291 244.077 75.27 -191.613 -159.973 98.5815 -335.413 590.745
7594 2 -10.6346 -69.9192 -17.8038 40.4269 -132.469 -68.1021 71.8364 116.066 -28.2227 -102.766 284.942
5284 1 -9.78732 -69.4841 -19.0115 -11.8361 304.392 157.369 -46.858 -362.946 17.3184 -330.291 691.23
5577 2 -8.23531 -69.3899 -18.774 60.8018 -151.355 -95.3316 -8.1373 173.189 20.0063 -104.952 357.276
7632 2 -10.5415 -69.4785 -20.4204 -53.0737 -188.075 30.427 6.75535 241.478 -34.1728 -94.8485 463.73
5216 2 -7.08868 -70.4217 -16.7898 79.0683 -137.884 30.9821 31.778 121.894 31.0877 -113.778 299.085
10354 2 -7.73698 -69.2201 -14.4772 66.8985 -95.0708 2.93634 66.7304 112.154 17.1856 -110.531 268.228
7887 1 -6.77876 -69.8402 -18.2935 -112.595 307.391 81.8568 41.8782 -280.96 -125.579 -314.581 649.555
2812 1 -6.60405 -70.0064 -15.2937 -138.915 199.245 -108.621 -114.794 -220.385 -38.0689 -300.406 542.785
14814 2 -6.1869 -70.9926 -19.2012 19.0725 -128.597 -30.9907 -42.5514 77.0364 125.036 -105.289 295.055
17495 2 -3.99064 -72.0591 -18.9655 -48.813 -61.6281 22.298 -70.0059 12.1851 157.528 -103.473 309.396
12484 1 -2.98595 -71.6075 -17.8396 15.1244 157.866 -122.52 196.031 15.145 -266.651 -318.911 623.096
17688 2 -1.46212 -71.5721 -18.3718 51.1122 -124.958 42.4349 -95.6708 -98.9875 132.854 -101.03 373.3
10155 1 -5.28496 -72.096 -19.855 76.4703 89.3744 -19.7731 71.3502 -50.4718 -363.907 -338.836 656.408
5382 2 -3.50431 -70.1565 -17.3111 -63.3721 -85.2501 53.7881 -40.7954 58.082 115.256 -113.71 267.831
12776 2 -5.27211 -69.1344 -15.4848 -13.989 -67.1109 56.1873 36.8966 142.752 63.0718 -120.735 297.703
12757 1 -4.35025 -68.9174 -16.7808 167.243 72.7845 -70.0212 -47.7059 -232.719 -150.428 -304.933 529.144
7882 2 -5.56272 -68.7894 -17.9523 -43.8843 -53.2651 -27.8536 6.77407 122.295 40.051 -107.745 224.307
10135 2 -3.36519 -67.7506 -15.9737 -175.191 70.3308 3.89698 44.2202 103.514 15.657 -110.671 295.179
7711 2 -6.01046 -71.3139 -14.5461 64.6721 -0.637086 26.0098 67.6933 87.647 -10.4168 -116.806 200.882
7404 2 -1.63142 -71.8574 -14.6866 -40.9544 17.4084 93.9123 -76.6616 30.7041 100.015 -112.835 253.362
15201 2 -1.22049 -67.6211 -14.2311 -83.8526 14.2823 -75.4944 23.0556 70.3272 -28.6118 -109.889 166.639
12938 1 -2.70284 -67.5657 -14.5807 335.665 -138.878 79.6497 -53.9269 -187.515 23.3986 -301.376 533.945
17484 2 2.63576 -71.1926 -15.8588 82.2815 -182.912 67.7614 8.24636 -14.9538 65.7947 -91.2372 283.813
17874 2 0.62429 -71.6274 -20.0528 -35.8093 -215.58 78.1968 39.065 -115.629 59.3601 -94.1503 347.95
10299 1 0.129894 -71.5862 -18.5137 -79.0887 316.446 -103.618 70.9919 222.466 -206.716 -340.828 677.155
10277 2 0.819823 -70.4085 -17.5652 75.7997 -158.491 55.1939 -29.5761 -97.2513 123.336 -91.1976 356.542
15085 1 2.25966 -70.0478 -16.9369 -184.176 411.041 -94.1804 9.53946 122.468 -185.753 -362.282 676.459
7773 2 3.302 -70.0241 -18.1863 48.7686 -255.61 50.2032 64.1716 -70.516 49.8856 -83.315 357.522
10396 1 4.48884 -69.9495 -19.2539 -85.5179 579.17 -157.035 -183.544 156.036 -36.7513 -371.175 820.134
14998 2 2.28724 -68.6586 -16.1512 74.8488 -141.779 -28.9447 -44.3549 -85.0631 58.6284 -77.9545 270.439
7837 1 2.7556 -67.4755 -15.0849 -125.489 11.4902 228.552 33.0188 133.465 -61.8338 -397.204 404.712
15171 1 3.48949 -72.0561 -14.7299 -163.097 234.068 -126.529 -9.26952 -8.71724 -72.6119 -350.713 401.069
5301 2 5.11371 -71.3325 -19.6814 89.5549 -302.061 101.039 96.7108 -57.9906 27.8168 -85.7014 445.49
19879 2 3.19445 -66.1587 -15.6912 -37.3901 174.128 -173.184 33.6004 -67.0008 -24.6209 -51.0524 332.53
12742 2 4.08967 -69.2109 -20.6241 -15.1666 -160.192 -30.1375 61.175 -91.795 -2.61036 -76.5525 235.822
10149 2 5.32795 -69.4795 -15.9786 108.598 -256.073 7.60765 60.2119 -33.7014 40.4837 -82.2355 354.339
17468 2 10.3066 -70.4758 -16.3322 -76.2263 -139.223 19.4138 5.79005 -98.3794 12.5518 -100.115 220.792
15173 2 6.45639 -71.5285 -17.1419 138.97 -220.739 72.1656 70.4566 -26.6928 -14.5996 -85.2747 357.061
22453 1 10.1612 -72.1742 -16.6573 80.788 188.166 -69.5563 -19.0898 197.645 79.0484 -341.812 432.789
17689 1 6.3353 -69.9468 -17.2169 -236.987 582.71 -146.018 -152.829 54.7521 -37.8038 -368.26 830.038
10181 2 5.73806 -69.28 -18.5149 50.9552 -267.989 71.0263 77.5874 -37.6912 11.7075 -77.181 362.302
7774 2 7.81159 -69.4084 -16.8615 51.4404 -225.093 34.5984 56.1552 -58.8435 28.2143 -86.797 307.137
12754 2 9.26272 -69.1654 -19.5367 -71.0823 -205.435 126.916 51.268 -11.884 -27.6634 -85.8505 307.344
10490 1 9.22958 -69.1364 -16.1936 127.602 279.505 -33.5324 -82.7684 191.776 -117.231 -348.569 495.612
7849 1 10.4851 -68.478 -18.7936 336.688 245.435 -227.931 -82.2055 119.16 74.8665 -364.796 596.057
5566 2 9.99817 -68.2194 -17.3002 -171.746 -74.4635 44.1706 33.1263 -59.9014 34.4054 -86.0394 229.536
10073 2 8.91284 -68.9714 -14.6685 -43.3536 -112.452 -7.21528 68.8517 -111.786 59.594 -93.1627 266.349
20153 2 10.8281 -67.0194 -15.034 -186.365 49.6054 -89.895 76.3549 -59.3167 98.8462 -84.1711 315.566
14990 1 15.7502 -71.9641 -18.0077 -45.9554 233.58 -75.126 -27.6386 146.615 44.6246 -351.059 399.874
15380 2 15.4794 -71.0637 -19.3767 11.8244 -119.331 41.1037 30.1331 -92.0994 -74.1789 -88.1 258.026
7580 2 15.3882 -71.2563 -16.5892 44.108 -120.148 51.6115 12.0503 -42.9013 4.28091 -91.0309 185.151
12746 1 14.3286 -71.5297 -15.4507 -114.973 214.525 -58.8186 55.905 27.8757 7.64639 -348.136 324.194
19944 2 12.919 -71.1962 -16.2338 34.8366 -117.723 3.96432 -59.4966 -39.338 -6.36903 -96.2042 186.819
12651 1 11.937 -70.0439 -16.8274 116.848 236.014 -26.3128 31.2414 131.258 -55.1483 -340.87 339.843
15200 2 11.7026 -69.5167 -18.3123 -107.407 -146.037 86.5067 18.6109 -75.939 -23.2996 -92.7468 257.98
7928 2 12.4846 -68.7038 -16.1001 -72.3999 -26.4215 -20.0339 41.2384 -61.7295 93.8217 -89.0665 213.048
17672 2 11.6733 -71.3356 -20.6122 -61.9631 -123.441 135.172 -11.6252 -23.9336 -6.89864 -90.7335 238.805
22751 2 11.1695 -67.5004 -19.8007 -222.67 -57.4166 76.8587 69.8541 -72.2085 -75.4506 -75.1653 338.95
15266 1 12.4011 -67.2147 -15.4768 303.883 -64.1451 130.872 -159.821 139.165 -232.006 -370.615 630.804
22862 1 15.1942 -66.8925 -20.2549 156.616 163.818 -55.0437 -168.175 161.847 152.796 -393.665 529.006
17587 2 15.913 -66.6111 -18.8293 -102.144 -73.7149 31.3187 89.3535 -71.6946 -11.0142 -67.8116 233.587
20186 1 16.7267 -66.3568 -17.4133 169.272 68.1062 84.1883 -160.934 154.997 -36.1014 -398.365 403.173
17563 2 13.1165 -66.1537 -16.4047 -178.563 35.1162 -73.1264 66.0606 -97.8726 63.3995 -68.3194 296.873
17409 2 15.5599 -68.4998 -20.5082 -44.6346 -65.9466 32.4823 61.2669 -83.3473 -94.5036 -79.0618 258.725
22765 1 15.8931 -70.1319 -20.6799 49.5442 153.544 -122.859 -74.2295 157.7 191.302 -366.4 509.309
22401 2 13.6037 -66.9221 -20.6301 -74.6627 -72.4848 -8.50919 78.1795 -89.7176 -89.7918 -70.0048 266.287
20540 2 17.276 82.3474 -18.1195 11.9289 -108.424 39.0386 25.388 -47.7589 -24.2898 -91.4442 170.379
17262 2 19.1553 -72.1961 -19.7032 -8.51093 -91.6759 71.8949 3.27302 -65.1402 -52.7654 -89.5597 202.936
22867 2 18.4838 -70.013 -16.0795 -75.0818 -27.3789 41.3883 73.4855 -59.1139 -9.70918 -87.4616 193.006
22380 2 22.0865 -69.6098 -19.2776 -94.102 51.9818 30.3045 14.2692 -26.563 1.76481 -84.3175 146.221
22273 1 20.6135 -68.8981 -19.6179 240.452 -55.4204 -126.396 -52.6584 52.7114 36.8777 -366.12 366.486
15078 2 19.6552 -68.8924 -18.2757 -149 19.4747 63.5747 60.1153 -37.7835 -7.34334 -83.766 230.313
22575 1 18.9647 -68.67 -16.8653 261.61 -50.8779 -62.6423 -164.654 79.1519 34.9933 -368.468 453.061
20106 2 20.0659 -68.1981 -15.8064 -129.266 45.8636 -13.1013 110.755 -28.1216 -14.174 -83.986 252.182
17649 2 22.7349 -68.1356 -15.7271 -68.5213 64.8679 -40.3116 65.4003 -53.6342 21.0212 -82.1391 193.94
22435 2 17.65 -67.6969 -17.0902 -91.051 0.933015 -5.42748 80.0977 -43.9434 -21.7945 -77.3789 185.422
136 1 18.4392 -70.718 -14.6705 72.6698 72.8786 17.3774 -103.018 148.99 -45.9711 -352.428 328.392
27553 1 21.3533 -67.7852 -14.9271 234.517 -138.644 89.8249 -241.644 54.6222 8.16968 -367.051 538.998
17473 1 23.0068 -70.9544 -19.4892 114.187 -39.4841 -43.9069 34.8385 43.3515 45.7077 -361.828 199.652
15479 2 23.0966 -71.7044 -18.0033 -49.7308 -18.6518 42.0856 -15.3954 -38.5882 -34.3287 -86.2424 123.516
17793 2 21.1366 -66.2038 -14.8189 -163.973 59.0822 -81.0347 106.913 -3.36027 8.16454 -82.9921 269.55
17508 2 17.472 -70.3035 -20.5866 -57.9518 -62.4111 68.0311 41.3953 -60.0444 -83.0778 -86.2147 230.469
20157 2 20.5226 -67.455 -20.4507 -183.786 1.69655 101.305 2.42824 36.5132 -13.5527 -84.0091 259.557
15159 1 28.1049 -71.3996 -19.6292 55.7166 46.5718 60.9575 -53.2316 -28.5181 2.12083 -359.128 105.419
17685 2 27.6476 -71.8002 -18.1412 -46.491 1.77369 -41.6823 30.9628 11.817 -21.7822 -86.4357 82.6978
316 1 28.2893 -71.5955 -16.645 135.834 -102.564 132.279 -16.1603 26.9654 49.6038 -368.681 257.576
22596 2 27.5471 -70.3797 -15.9925 -60.872 80.7378 -97.3144 -9.36768 -37.9514 14.7745 -80.0688 178.272
25243 2 28.2686 -69.8103 -19.4184 -34.5247 16.3851 -56.5676 -7.18603 11.9608 33.1896 -86.4821 89.9369
17762 1 26.8527 -68.8861 -15.6279 102.754 -104.227 238.498 51.6779 53.373 -80.4103 -373.608 354.004
119 2 25.2811 -68.6183 -15.5381 -31.7281 60.334 -109.704 -6.53601 -38.8153 21.1272 -79.9745 166.498
20343 1 28.5339 -68.4622 -20.0955 22.6427 32.7221 141.722 87.4123 -39.5069 -147.227 -364.608 325.137
25327 2 24.4501 -70.7989 -20.1191 -23.0574 22.2208 -6.32325 -7.47909 18.5541 -16.3211 -85.6952 59.7675
20359 2 24.2735 -67.9867 -17.8357 -100.507 30.9531 -20.3572 12.1005 26.9054 51.4314 -82.7647 154
23114 1 24.1543 -67.7233 -16.2218 110.514 -61.7524 100.31 -3.70512 63.0247 -66.3078 -369.415 230.586
27957 2 27.3465 -67.7356 -16.6724 -33.4025 -25.0274 -76.6123 -61.7337 -10.1574 58.9815 -84.3475 156.455
27844 1 24.227 -67.064 -19.1467 192.882 58.1078 11.4077 12.9399 -68.0582 -194.341 -365.934 392.864
17970 2 28.6689 -67.0578 -19.2765 -9.17354 -45.7531 -110.792 -52.0926 4.81984 78.9277 -83.6294 186.672
22670 1 28.0956 -66.3434 -16.3073 55.668 88.6642 144.168 104.2 5.62487 -131.998 -371.265 301.561
7512 2 35.1941 -68.0433 -19.8398 -19.9561 -23.5318 -8.73405 -66.2967 -43.0351 8.52728 -86.8702 138.343
28077 2 34.8368 -70.1734 -15.1581 -0.752568 -75.7795 -18.58 -62.758 23.4467 -103.715 -79.0487 224.377
2709 2 34.6966 -69.2551 -17.588 28.7269 -68.0957 -76.4526 -51.3631 -44.5888 -11.9238 -86.4588 156.713
22639 2 29.8381 -71.1431 -16.9238 -58.0559 43.0523 -79.0008 17.0709 17.8087 -17.5191 -83.7261 124.602
22925 2 32.5336 -70.6261 -16.6521 5.56011 14.3647 -110.136 18.762 17.6823 -10.2221 -80.7221 129.573
24889 1 31.1065 -70.2218 -17.2567 32.6843 -5.07089 162.434 -44.372 -59.0673 -30.9022 -367.126 205.906
20364 2 31.4387 -69.794 -18.8255 -14.4403 -41.6899 -43.0685 30.782 27.8562 21.8784 -85.2415 85.9564
27638 1 33.8147 -69.7523 -16.3072 -40.1175 96.5284 202.123 62.4044 22.3484 40.8801 -369.33 249.892
27469 1 31.536 -68.7264 -20.0805 -7.26403 104.729 82.9184 -72.7255 45.6099 -126.559 -365.363 284.139
22953 2 30.8015 -68.7804 -16.5564 -9.4432 -15.9335 -79.6227 -9.23319 8.9597 61.3594 -84.4414 127.685
24897 2 33.3246 -68.2861 -15.6702 -24.7364 -28.5269 -133.406 -60.7402 -46.8874 5.05333 -83.8681 170.738
17570 1 30.8454 -67.6592 -15.4234 38.7186 48.5712 197.149 68.2452 45.3215 -156.003 -368.535 341.733
117 2 29.4084 -72.2267 -20.1432 -40.8914 -41.8976 0.441682 8.90912 -20.391 -11.5969 -88.1838 60.3324
15690 2 29.4539 -66.9146 -15.6374 -15.0141 -94.7735 -89.7204 -46.6169 0.859074 97.9689 -82.8306 203.223
20267 2 31.9404 -67.2735 -19.5704 17.2422 -31.8015 -94.9979 49.4853 -25.2614 48.8663 -83.1631 161.006
20174 1 34.1201 -67.0609 -15.0552 162.992 -38.4452 287.614 182.96 122.416 0.921453 -374.914 476.018
7779 1 -23.612 -65.5244 -17.8739 279.781 -147.179 269.261 151.729 101.895 -85.5257 -376.493 547.787
300 2 -22.1766 -65.4175 -18.7164 -139.581 87.3923 -120.583 -33.0072 -28.3503 26.7657 -75.2136 235.361
27762 2 -24.0725 -64.6318 -16.6106 -202.618 106.032 -178.49 -13.7881 -17.6499 72.9344 -71.9323 325.366
7796 2 -24.7266 -65.0241 -18.9225 -184.142 48.6963 -112.256 -68.9066 -69.0705 40.2677 -80.6225 275.798
24983 2 15.6742 -66.0183 -16.1614 -36.7861 -13.2839 -124.572 51.4193 -150.755 32.5182 -64.4526 299.345
27289 1 14.2998 -65.1064 -16.148 278.603 -170.164 282.459 -76.9563 283.248 -90.3648 -418.635 697.202
14984 2 14.6094 -64.106 -17.2648 -191.231 187.447 -120.195 1.69233 -121.034 17.2505 -44.7978 407.912
13054 2 13.8423 -64.6399 -14.6463 -204.759 161.808 -250.851 47.9611 -89.8624 42.197 -62.3695 435.729
10103 2 17.8604 -65.1796 -17.5307 -186.43 26.3673 -79.5589 67.7063 -40.1012 35.1235 -66.7687 237.15
22861 1 19.1901 -64.3938 -17.2085 475.964 -134.265 204.572 -51.8494 11.4392 -88.7927 -397.39 559.046
209 2 20.4563 -65.2451 -17.9088 -195.666 -18.2753 -4.96253 51.9646 22.5924 43.2446 -77.6907 221.921
22375 2 22.3653 -64.0689 -15.5209 -228.964 66.4248 -99.0626 7.15074 16.4096 55.4556 -78.1056 275.581
20237 2 19.7133 -64.1475 -15.7226 -218.098 100.43 -151.115 4.83494 3.51514 52.3341 -69.0335 304.852
27661 1 20.747 -64.1179 -19.1 519.184 -104.992 25.7124 0.725659 -137.481 -122.405 -392.56 653.261
20627 2 22.2198 -63.5742 -19.1946 -257.855 100.226 -115.234 -29.4332 87.757 71.4818 -68.9545 372.189
25062 2 19.7073 -63.2335 -18.2947 -336.715 169.225 -101.951 -29.3273 20.6567 49.4307 -61.8195 451.114
17503 2 20.1883 -64.9435 -20.2729 -259.526 -5.78736 99.7378 4.97829 84.4691 62.5783 -75.7737 368.133
27663 1 21.0117 -64.6023 -14.877 399.47 -124.619 239.664 -59.4581 -44.1093 -85.2569 -380.775 504.681
25613 2 23.2218 -65.8019 -18.9485 -145.9 -36.4646 -29.8027 -8.92071 55.7379 88.8292 -82.9047 214.43
20252 2 25.6453 -66.2319 -19.3351 -67.7258 -72.1283 -85.868 -47.011 22.6525 102.99 -83.6519 200.647
9991 2 24.1193 -66.0961 -16.0738 -107.754 -19.9763 -39.2918 -28.5999 -28.5762 66.8314 -85.1392 157.116
28215 1 23.6854 -64.1926 -18.9743 403.529 -134.542 245.29 59.7907 -81.377 -148.757 -385.189 571.308
20377 1 23.8899 -64.4648 -15.9777 391.812 -77.4341 115.025 20.6584 18.2494 -154.391 -374.34 490.623
27753 2 27.7115 -64.7222 -19.7996 -67.6754 48.4995 -232.053 -15.742 2.86409 70.0989 -70.5941 274.085
22578 2 28.5856 -65.3599 -17.4867 -38.3546 -4.40159 -105.685 -25.0399 -8.58258 55.2219 -76.2971 138.646
23036 2 24.8993 -64.0822 -20.0245 -186.815 95.4761 -170.451 -22.8742 47.4675 66.1525 -69.1568 311.118
17680 1 26.1827 -64.9948 -20.2884 208.363 -9.0657 338.938 48.28 -53.1327 -192.095 -388.157 467.845
25540 1 28.8855 -65.4757 -19.1217 31.077 16.599 366.638 42.0353 18.7983 -148.362 -382.685 435.963
20082 2 24.1483 -63.9391 -17.4511 -224.48 73.547 -100.5 -26.2021 -4.96622 68.4825 -75.256 288.868
22690 2 24.7889 -63.8438 -14.7879 -194.07 94.4928 -134.667 5.68556 5.51086 84.4836 -75.8958 302.086
2973 2 27.3378 -65.9145 -14.9081 -41.5548 -53.3277 -88.2582 -62.7936 1.46249 115.635 -80.6201 231.775
20350 2 31.7739 -66.292 -15.265 -61.2876 -22.2546 -142.498 -14.369 -77.5373 58.5046 -81.7476 200.531
23135 2 32.8618 -64.875 -19.1215 -103.531 23.1249 -153.029 13.2967 -47.2961 49.6931 -77.0851 198.52
28117 1 31.8496 -65.7196 -20.0278 28.0559 16.8619 353.104 -105.449 110.544 -136.945 -380.296 485.49
22680 2 30.357 -65.2141 -19.7657 -10.8447 23.8709 -227.123 18.4574 -37.4005 67.0694 -72.8827 272.402
24962 1 34.5078 -64.3266 -16.334 429.554 -197.098 344.375 16.3469 165.004 -128.026 -386.538 691.536
25661 2 34.1943 -65.9687 -16.3122 -133.239 38.3095 -141.972 -39.9885 -99.0054 21.0958 -82.3388 257.957
25141 1 34.182 -64.1034 -19.1438 418.954 -185.722 308.493 70.7824 111.829 -88.4112 -385.352 622.125
17604 2 33.402 -64.0076 -15.132 -206.389 126.541 -206.738 7.79162 -94.7519 87.046 -69.6246 401.006
25257 2 34.277 -63.4051 -17.6674 -257.92 165.639 -195.064 -21.5255 -58.3478 52.5451 -69.6846 420.257
3112 1 32.4854 -65.1044 -14.3783 287.409 -83.5094 358.335 -2.91241 225.427 -143.922 -385.707 619.303
7612 1 -9.00256 -42.5304 -19.8273 545.619 -499.254 694.623 -39.8786 290.378 -256.519 -397.101 1313.31
12665 2 -7.83506 -42.131 -18.7142 -241.722 203.212 -277.948 -12.532 -82.6825 100.547 -70.2495 516.436
7784 2 -10.3051 -42.0295 -19.0201 -205.254 235.397 -369.094 21.6985 -139.207 131.694 -64.0611 636.231
2718 2 -8.4129 -43.8953 -20.49 -326.657 259.621 -339.823 68.3351 -136.613 92.2134 -63.8532 668.672
2899 2 -5.29908 -41.4998 -18.3079 -108.935 102.815 -232.046 -5.05994 38.1431 98.0456 -68.5376 345.461
17670 2 -2.90586 -42.2436 -19.4633 -206.419 114.736 -149.812 -11.3505 39.1515 94.4498 -64.5273 346.284
2763 1 -2.57519 -42.3848 34.6973 453.052 -157.143 150.94 -13.847 43.5576 -260.613 -398.945 699.49
2817 2 -20.2274 -41.293 -17.153 -193.481 135.39 -330.987 -51.5008 -34.3481 41.1408 -56.0864 434.58
405 2 -22.93 -40.99 -18.3096 -238.498 218.471 -316.343 -14.3689 -24.8318 66.8051 -63.8324 516.054
25178 1 -21.7562 -40.6329 -17.2815 416.378 -284.078 560.647 109.956 61.6329 -80.6088 -404.812 824.419
5289 2 -22.083 -40.298 -15.6733 -204.682 110.739 -178.697 -60.5459 -51.9547 57.2066 -64.2557 347.681
25514 1 -23.9354 -39.7701 -18.897 424.067 -298.429 530.238 26.1886 55.3153 -143.995 -392.372 826.693
23023 2 -24.368 -39.2927 -17.3727 -190.988 98.9661 -181.188 -36.0265 -68.8489 67.6452 -74.6647 336.407
7949 2 -21.3589 -39.2235 -17.9228 -150.06 46.7655 -250.578 -66.711 -58.2637 9.93262 -71.9811 304.072
10375 2 -19.8868 -38.8858 -20.136 -62.3524 69.4981 -303.384 10.38 -99.8171 -44.7273 -62.6948 378.782
25330 2 -22.7886 -38.9917 -19.731 -192.57 114.629 -230.585 -22.1832 -52.0712 9.55636 -72.2272 342.606
22839 1 -21.2587 -38.4642 -19.4135 223.786 -145.204 509.173 52.8275 192.685 94.2372 -392.835 685.055
7699 2 -24.0575 -37.302 -15.8383 -155.85 22.8829 -59.3546 -41.1996 -86.3855 46.2412 -82.7422 240.633
7901 2 -21.2638 -36.8781 -19.1928 -85.6122 93.3291 -201.604 -4.09554 -112.954 -71.9793 -72.8978 346.553
10315 2 -22.0577 -36.1495 -16.7749 -165.549 78.6359 -71.7686 2.32312 -61.7532 12.1427 -75.2574 239.625
25333 1 -21.973 -35.7524 -18.376 252.436 -230.388 230.372 -36.8921 192.539 80.8858 -383.827 598.228
258 2 -23.4178 -35.8302 -19.1508 -167.308 108.197 -94.3998 -0.165256 -76.1223 -73.3635 -80.3504 307.673
2968 1 -24.2309 -35.7089 -20.5392 299.345 -180.304 184.865 -11.1142 157.326 213.414 -377.002 632.077
18082 2 -19.842 -39.4189 -15.6341 -100.094 -23.615 -179.518 -51.3114 -11.3529 98.0626 -60.6789 235.299
2510 1 -22.611 -36.6597 -15.4338 247.602 -77.622 130.572 54.4599 68.8586 -92.4618 -378.087 360.798
671 2 -17.5856 -40.3064 -15.8687 -35.1637 19.5434 -293.058 10.4973 -26.0279 78.9038 -48.4308 323.499
25143 1 -18.9333 -40.2735 -16.7404 148.084 -52.1455 551.221 93.3436 61.906 -72.5324 -424.378 580.302
28013 2 -18.5073 -39.6233 -18.1436 -21.0393 12.8585 -301.808 -3.82637 -66.0777 -40.3708 -57.0122 327.918
10257 2 -16.8412 -39.0077 -20.1874 -41.6169 89.1013 -385.169 27.0972 -31.6394 -62.8385 -56.642 443.933
7705 1 -18.3205 -38.7688 -19.4646 12.9837 -97.2068 690.812 -67.4506 177.249 171.163 -415.499 861.437
108 2 -14.3136 -38.5186 -19.2432 -9.50838 25.5644 -281.807 -44.706 85.9241 -42.9189 -60.5116 344.381
2998 2 -13.4653 -38.5467 -16.7056 -44.0085 6.39565 -234.938 -15.5661 -23.1881 90.4321 -65.4754 274.759
554 1 -15.4239 -38.2019 -20.4356 99.9753 -108.593 658.418 45.1984 -40.199 165.576 -413.847 751.701
25559 2 -17.1895 -37.8747 -16.2944 65.6543 5.48419 -132.887 66.6929 -16.8376 63.1572 -50.3826 239.278
25038 2 -18.3171 -37.1269 -19.4516 22.7947 61.8152 -301.873 54.0232 -85.8456 -80.0314 -63.17 411.921
5396 2 -16.1492 -36.7108 -20.4613 -50.0426 28.5801 -289.296 -6.93109 -2.2505 -69.4023 -68.563 311.197
484 1 -17.6114 -36.0227 -20.354 1.62009 -100.201 554.972 -36.1934 77.8187 85.3898 -395.924 645.663
5091 1 -13.936 -38.0918 -15.2472 99.7015 -41.2697 427.69 4.307 154.566 -232.626 -408.946 638.56
27779 2 -14.3294 -36.5308 -15.3182 -63.1926 59.953 -167.568 -39.5841 -57.1548 92.4695 -66.3582 281.185
25274 1 -16.7974 -39.011 -15.2633 -75.7705 17.957 461.945 -130.228 97.4412 -219.396 -435.213 686.506
7693 1 -10.619 -40.6705 -18.2266 324.652 -296.145 622.309 44.2272 235.985 -278.706 -392.419 1031.86
2328 2 -10.4009 -40.7277 -16.6271 -228.475 162.079 -264.12 -5.95622 -95.2815 95.7359 -68.2671 471.765
12379 2 -12.1281 -40.0735 -18.3832 -59.0571 91.3851 -348.759 -26.6926 -31.4369 95.1712 -65.5082 427.105
7695 1 -13.0594 -38.7759 -18.2248 41.5818 -35.4123 541.324 95.926 -82.2253 -77.6338 -402.952 600.097
2814 2 -9.46167 -39.6639 -18.728 -183.699 89.4966 -245.755 -69.1979 -138.288 128.163 -80.7418 465.245
7696 1 -10.0061 -39.7524 -15.4103 421.869 -146.096 368.092 36.8204 89.5952 -221.426 -392.453 685.689
5282 1 -8.28032 -38.5406 -18.6483 287.756 -181.984 307.733 96.4971 221.908 -217.989 -369.626 740.717
7318 2 -10.3716 -38.3096 -16.164 -164.241 33.6547 -177.696 -42.6982 -48.8678 139.386 -81.1013 336.044
7713 2 -11.8134 -37.638 -18.3354 -58.7642 55.2018 -195.766 -91.3364 7.56253 30.8916 -73.7913 274.65
17952 2 -9.15021 -37.3275 -18.0295 -141.051 111.305 -132.958 -53.9366 -93.0209 97.6396 -82.3277 353.544
2811 1 -10.6205 -37.2855 -17.3981 258.92 -199.308 344.048 141.194 103.99 -188.336 -373.093 674.454
5203 2 -10.872 -35.7375 -17.1002 -107.755 127.748 -140.21 -87.5346 -37.818 89.2383 -80.4577 339.597
15441 2 -7.35925 -37.6931 -19.6381 -139.364 107.385 -110.343 -44.3491 -75.6303 41.4301 -80.8305 287.708
7952 2 -7.17897 -39.5517 -17.9078 -71.146 57.5593 -183.225 -41.4613 -44.1091 160.357 -78.4488 362.89
5163 1 -3.75871 -41.2564 -18.4903 297.594 -148.597 396.122 3.6746 -115.108 -213.305 -396.411 655.014
7983 1 -6.73814 -40.9041 -18.6784 227.273 -217.738 470.513 53.0902 51.3236 -261.288 -383.63 765.909
2604 2 -6.9229 -40.3295 -20.3035 -180.614 147.807 -225.233 -36.5335 -78.0453 99.4865 -80.1368 420.089
7764 2 -2.82455 -40.8728 -17.2238 -121.984 32.182 -186.121 -20.8368 130.775 96.2285 -66.2071 343.74
18035 2 -3.95712 -39.792 -19.2031 -122.728 30.677 -163.607 -22.8284 20.2527 115.064 -76.9801 272.008
10443 1 -2.47468 -39.4516 -16.6241 65.576 106.443 259.444 77.3382 -257.156 -215.069 -391.255 621.633
10099 2 -3.5578 -39.0095 -15.5505 -29.4174 -73.4058 -103.5 -69.0759 58.8054 129.328 -70.3178 281.123
7518 2 -2.54296 -38.3846 -17.8751 -48.5838 -36.218 -123.274 -34.2737 94.9247 101.188 -76.5884 260.63
10194 2 -2.45757 -38.15 -20.5058 -146.122 9.01413 -34.3975 -37.037 20.463 54.2237 -74.5476 182.782
10359 1 -3.46733 -38.2397 -19.298 204.729 -55.1795 214.441 99.6761 -67.1153 -150.299 -379.938 425.746
5837 2 -4.32159 -36.8339 -16.3257 -23.9632 -47.6927 -79.9982 -80.2742 26.322 77.036 -75.4294 203.93
5210 1 -4.5089 -35.9512 -17.6288 63.832 -56.1267 195.121 171.003 -14.9749 -110.042 -382.262 414.853
7593 2 -4.45449 -36.9923 -18.8548 -67.9507 46.4319 -103.171 -73.5827 21.8365 60.5577 -77.6737 216.859
10458 2 -6.05554 -35.509 -17.1334 -46.2405 38.7128 -78.7774 -95.7577 -29.0887 70.6819 -78.6253 236.801
10538 1 -6.69553 -36.6957 -20.6062 275.645 -207.412 126.066 105.988 81.5323 -37.9282 -377.275 491.347
15095 2 -1.0208 -39.2337 -15.9005 41.3878 -79.245 -134.907 -60.3714 164.107 82.7286 -73.029 369.628
90 2 -6.04724 -38.72 -15.031 -47.8295 -61.5362 -101.68 -44.138 15.8978 132.27 -70.9915 247.868
7489 1 -4.7189 -37.9237 -15.1547 30.6481 162.39 147.329 162.741 -41.8943 -250.315 -388.795 536.927
15393 2 2.85161 -41.314 -17.0739 -192.07 84.4449 -109.907 34.6297 191.152 54.6571 -79.6308 427.398
5209 1 2.60928 -40.4399 -15.678 191.819 16.9481 157.292 12.1373 -376.533 -54.806 -356.307 678.616
12686 1 3.27179 -40.1356 -18.0442 324.292 42.2991 -26.8414 -76.7237 -355.699 -22.4759 -366.36 708.9
17470 2 4.5266 -39.8723 -18.9683 -248.541 4.97309 58.6753 58.3763 166.959 -12.8547 -84.763 418.465
15091 2 2.06222 -39.7361 -18.9272 -103.807 -76.4458 14.6792 24.5134 191.334 31.0718 -76.1681 355.065
15245 2 3.47122 -39.2654 -16.58 -97.42 -26.6308 15.8798 -0.326313 159.796 -14.8166 -95.1603 295.111
12900 2 -0.150557 -39.3431 -20.4019 -62.0538 -67.4962 16.0035 19.2784 96.0361 106.596 -70.4126 263.475
10250 1 1.15501 -38.6799 -19.8263 79.6617 164.615 -71.1982 -34.8259 -269.573 -121.141 -390.857 555.397
7896 2 0.782254 -37.6142 -18.7193 -5.10174 -6.90353 -48.3959 -34.791 123.85 45.348 -74.184 240.034
10494 2 0.461838 -37.2627 -16.0515 23.0094 -6.08754 -93.7284 -82.0323 127.575 17.685 -79.7364 284.658
12929 2 -0.738514 -35.6768 -17.8555 -55.4155 47.7438 -133.964 -35.3601 103.27 6.1554 -75.0135 246.522
5281 1 0.558402 -36.5919 -17.5384 4.9365 -100.141 229.079 114.432 -246.914 -7.65306 -381.157 554.249
2960 2 1.94629 -35.72 -17.5639 -11.9879 66.6498 -82.8037 -71.4371 92.114 -37.1846 -80.5722 248.355
17340 2 2.18901 -38.3039 34.7432 -122.068 -50.6405 88.0667 82.3434 138.415 19.4831 -73.1573 336.46
12875 2 1.31363 -39.6219 -15.2328 7.79655 -50.204 -116.507 -77.3367 168.972 47.1349 -83.6252 349.097
7707 1 0.148807 -38.5424 -15.0778 -108.637 156.476 212.481 204.686 -280.14 -135.276 -376.891 710.135
13053 2 4.89025 -37.3171 -19.8631 -223.068 22.5539 99.7497 95.3185 138.893 -93.0199 -87.3699 443.102
12868 1 5.54715 -38.6741 -19.2292 504.533 -22.4156 -173.338 -191.099 -303.233 147.456 -356.121 911.382
7858 2 6.34747 -38.8041 -20.6559 -271.161 49.7985 74.435 73.2229 139.169 -37.475 -79.3085 435.811
15259 2 6.29559 -38.3894 -17.8799 -210.085 40.5133 79.0015 100.005 118.452 -89.2221 -99.168 412.194
2977 1 6.88395 -37.7694 -16.5586 328.327 -165.192 -110.556 -213.394 -102.318 228.044 -319.429 737.301
20277 2 8.42215 -37.3153 -16.8626 -64.0551 62.0037 -1.6739 160.652 2.52592 -129.542 -106.506 373.777
12789 2 6.09468 -36.4908 -15.9183 -130.007 115.425 45.583 24.7511 39.5742 -95.9038 -106.034 286.535
15374 1 9.46579 -36.1618 -16.5544 -5.42238 -47.3568 5.16649 -265.934 59.3607 257.663 -315.344 651.321
17971 2 6.98849 -38.8182 -15.2958 -233.931 87.5595 67.3804 79.6387 33.298 -93.2084 -115.311 381.697
12782 1 4.90196 -35.7924 -15.0308 180.492 -276.08 -38.8958 107.734 -89.7597 164.02 -331.745 544.169
17777 2 11.0785 -36.5869 -16.3019 18.7869 -3.5833 -54.0548 134.219 -54.264 -99.9885 -111.368 311.525
12961 1 12.6046 -36.7132 -16.564 65.9312 29.9097 140.679 -247.361 56.5888 176.381 -311.834 544.13
20589 2 13.7016 -36.8531 -15.5215 -36.4233 -56.1068 -6.57924 118.15 42.0873 -64.2536 -108.284 247.879
12582 2 12.8157 -36.1389 -18.0041 -46.4477 -30.9998 -41.5475 88.1524 -45.2271 -153.477 -111.524 316.704
12978 2 15.932 -35.5093 -15.132 -1.2995 -63.9494 94.3548 105.538 87.5198 -105.847 -107.842 330.261
10296 2 17.5005 -36.3305 -19.6738 -41.4896 39.2886 -123.455 14.9222 -94.2275 3.39724 -96.8207 217.264
20257 1 19.0424 -36.251 -19.5857 36.0352 -76.5549 233.236 -40.9119 96.7993 3.47991 -349.447 327.01