ITEM: TIMESTEP
920000
ITEM: NUMBER OF ATOMS
29952
ITEM: BOX BOUNDS pp pp pp
-2.5615833775063237e+01 3.5601128117061187e+01
-9.2042895255473653e+01 1.0202818958967239e+02
-2.1035324467156940e+01 3.4903177627851115e+01
ITEM: ATOMS id type x y z v_StrAtomXX v_StrAtomYY v_StrAtomZZ v_StrAtomXY v_StrAtomXZ v_StrAtomYZ c_PEAtom v_VMS
4896 2 -16.0302 -70.934 -18.1481 -347.841 93.4885 -436.998 2.17563 23.5789 69.3134 -169.229 508.098
7392 2 -11.9802 -70.4976 -15.4334 316.583 -387.385 -948.858 -9.65876 121.787 56.2982 -266.201 1122.66
4982 1 -15.9132 -69.7538 -17.1875 976.009 603.975 1579.71 129.99 11.3845 -32.1196 -806.558 884.103
4812 2 -16.6811 -69.6845 -15.7186 -374.398 -346.576 -609.685 -166.359 -244.191 35.4377 -274.405 573.028
7396 1 -13.1508 -69.4211 -15.697 78.2652 304.947 2046.58 -48.6992 -152.698 -84.8306 -735.588 1891.59
7481 2 -14.305 -69.4302 -16.7389 180.221 -191.717 -852.422 -26.2577 271.697 -92.2305 -279.354 1034.24
7486 2 -11.8141 -68.4362 -16.0509 170.03 -469.358 -1137.81 -151.253 46.2697 16.1351 -315.054 1165.71
4990 2 -16.8158 -68.4013 -17.8055 -24.0317 -287.045 -613.115 -291.828 264.344 -275.052 -265.386 976.392
4898 1 -17.1847 -68.5312 -14.8193 398.994 647.595 1229.15 234.759 65.5198 49.9034 -720.408 854.56
7478 1 -10.6241 -69.5962 -15.3551 613.296 253.485 2125.54 103.732 -149.38 95.8536 -718.204 1757.06
7399 2 -13.7683 -68.8809 -14.2656 -372.398 -169.74 -399.709 -182.98 -317.305 321.731 -271.608 871.995
4906 2 -18.5419 -68.4091 -14.0008 38.514 -442.414 -943.613 -250.644 -91.699 59.7136 -272.58 973.613
7308 2 -10.2545 -68.8315 -13.9875 -563.962 -16.3881 -604.649 218.127 263.496 307.487 -267.074 979.002
4955 2 -17.7131 -68.1405 6.31463 -328.33 -441.868 -228.497 -138.002 -338.167 69.6887 -209.768 670.049
7332 2 -12.1064 -68.5013 -1.9747 -526.881 -59.8679 -221.256 53.8016 -8.73062 -31.9957 -120.928 425.159
4940 2 -17.0665 -67.9117 3.5957 -704.062 -681.562 53.399 63.2056 107.351 138.799 -221.885 813.366
2507 2 -20.3719 -62.9501 -20.1757 -391.113 -492.848 -487.097 57.8176 -39.5746 -60.4007 -279.461 188.334
2412 2 -22.7294 -62.7654 -15.6218 -538.2 -648.219 -577.991 -41.8617 -52.9785 136.001 -262.019 280.136
11 2 -24.6189 -62.8155 -19.8487 -429.789 -447.893 -513.367 -33.0224 54.7636 -189.858 -256.857 355.256
2406 2 -21.0245 -63.1461 -17.6045 -465.555 -398.298 -352.787 -30.556 -255.751 -128.514 -269.211 508.164
4897 1 -20.0931 -63.713 -18.8053 498.435 807.402 922.045 -84.6774 199.021 538.649 -774.579 1074.61
4905 2 -18.6179 -63.6079 -18.3208 -484.405 -464.881 -520.271 -100.348 101.584 -187.837 -277.393 411.561
2403 1 -22.2359 -63.7893 -16.733 763.831 574.728 1110.81 150.481 164.062 -56.9633 -787.68 616.594
2506 2 -18.2588 -62.0415 -15.2709 -423.582 -466.901 -648.573 34.9786 -155.974 2.86326 -268.397 345.587
2409 2 -23.3393 -64.1187 -17.868 -466.586 -543.444 -393.197 -93.3405 62.8494 -56.913 -267.173 254.241
2401 1 -24.3783 -64.2783 -19.1029 578.124 1099.51 721.839 96.2271 261.883 38.425 -805.834 674.923
2408 2 -21.881 -65.1222 -15.9738 -437.879 -486.596 -708.567 -22.0015 -59.4122 -189.026 -272.09 426.254
4985 2 -20.4938 -65.2676 -18.9743 -462.043 -389.126 -536.808 225.388 -27.8036 28.1869 -273.605 416.485
2407 2 -23.7156 -65.1011 -20.2446 -375.879 -631.783 -302.353 -147.158 -144.192 49.1705 -265.533 473.605
2416 1 -25.0178 -66.6112 -14.7725 332.269 1051.55 1145.19 -188.391 -16.5145 -6.57392 -746.612 837.201
2402 1 -22.0972 -66.7236 -16.0374 598.331 855.68 1278.88 28.961 116.871 287.038 -770.002 803.058
2486 1 -21.0319 -66.8082 -18.9677 1247.23 831.63 951.178 -2.2539 145.859 78.04 -779.084 468.445
2410 2 -23.5948 -66.8377 -15.4142 80.8716 -583.729 -586.276 -257.01 -214.599 -113.777 -282.67 904.737
2316 2 -21.8656 -66.9864 -17.635 -622.506 -547.192 -185.313 -16.6419 -145.828 -106.927 -271.433 512.651
4912 1 -19.4188 -67.2558 -14.6521 177.702 635.939 1272.43 445.771 -4.7069 48.47 -751.125 1228.83
2494 2 -21.9635 -67.0441 -20.3255 3.47256 -328.28 -42.6127 -101.168 608.085 -131.471 -270.645 1135.23
4900 1 -18.0098 -67.3947 -17.6745 1140.74 416.669 1162.15 127.942 19.1744 478.056 -764.613 1129.63
4904 2 -18.3605 -67.4419 -16.0153 -185.04 -418.419 -233.625 -452.904 52.749 -51.8377 -295.241 822.959
4901 2 -20.8439 -67.4125 -15.2427 -119.416 -456.553 -611.284 -101.139 123.411 -151.09 -285.157 578.473
2400 2 -19.533 -67.4855 -18.4913 439.429 -506.77 -234.945 -156.778 581.68 -132.688 -258.446 1361.47
7394 1 -11.7981 -66.8194 -15.693 732.973 52.7906 1460.07 -50.8331 -70.1224 475.127 -747.759 1478.39
7401 2 -13.7793 -65.2325 -18.9836 -213.392 -566.733 -308.712 166.345 288.124 -43.4827 -281.657 661.805
4908 2 -16.72 -63.8094 -16.5591 -405.689 -120.893 -658.878 68.1891 -6.19493 161.784 -266.119 556.693
2498 1 -16.8055 -62.2902 -15.8831 668.466 969.223 1067.85 -231.389 -6.17356 -100.058 -793.241 566.231
4997 2 -15.7865 -62.2053 -14.6912 -467.276 -535.904 -541.868 88.6254 39.8479 -22.2689 -264.439 187.001
5002 2 -13.1883 -62.3609 -14.8451 -248.075 -384.992 -249.04 -118.978 -265.69 119.67 -261.1 561.977
4994 1 -12.0051 -62.4706 -15.9918 1026 584.494 1384.78 19.7091 -2.64926 133.094 -796.347 732.378
5003 2 -14.1385 -63.1456 -20.3555 -602.847 -706.292 -636.45 -76.9492 6.39431 -105.182 -274.627 243.783
7404 2 -12.3845 -63.6026 -17.1443 -262.801 -190.984 -82.9876 116.286 184.18 347.492 -279.045 727.436
4902 2 -16.1002 -64.0111 -19.0031 -265.862 -520.382 -720.667 1.937 -70.6001 -140.369 -268.454 479.526
4899 1 -17.2272 -64.3876 -17.9397 573.511 635.089 953.89 -143.821 83.4606 1.9134 -779.62 456.091
7393 1 -14.8183 -64.474 -19.8823 525.547 855.313 735.541 -195.691 -98.7382 438.996 -771.53 897.707
7398 2 -11.2208 -65.0391 -19.2188 -237.694 -693.647 -413.928 -204.143 -217.338 -51.5436 -270.518 658.254
7395 1 -12.4232 -64.92 -18.1245 707.631 1024.06 1104.39 41.5161 -151.696 535.008 -774.171 1031.94
4903 2 -17.5249 -65.9192 -17.8799 -510.026 -566.634 -684.051 3.45092 -58.5288 -174.064 -282.516 353.335
7400 2 -12.113 -66.0709 -17.0102 -461.728 -434.3 -700.66 -68.5196 240.562 -325.58 -273.05 755.047
7402 2 -13.194 -66.643 -14.8306 225.47 -439.387 -825.825 97.7151 -135.626 25.1554 -276.086 966.448
7493 2 -10.6139 -62.7033 -15.1272 -58.5705 -385.774 -217.659 6.17273 485.389 -1.12823 -262.535 887.266
7397 2 -15.9487 -67.651 -14.454 192.352 -548.172 -614.553 242.536 102.534 -169.02 -288.621 946.389
2500 1 -19.6677 -61.6954 -20.8692 783.567 790.799 660.086 -48.668 10.5322 71.7507 -783.386 197.676
27486 2 -25.6366 -59.4076 -4.8592 -565.71 -524.894 -551.672 -83.1053 -61.826 49.1504 -247.719 201.802
2501 2 -20.791 -61.5456 -14.527 -153.613 -455.362 -671.179 -119.574 -54.1159 77.0403 -261.467 521.763
2 1 -22.3696 -61.3979 -14.9138 856.289 637.319 1030.85 13.7237 154.78 -90.7774 -809.318 462.387
1 1 -24.1528 -59.2979 -19.5832 886.045 541.742 931.212 93.2706 -85.7249 -2.53527 -816.915 429.301
2497 1 -19.3899 -59.2322 -18.8276 840.554 502.236 1191.31 12.3005 21.5265 178.428 -806.808 673.429
8 2 -22.4111 -60.3052 -16.1063 -587.926 -557.707 -390.789 13.6871 -24.536 -63.2347 -259.451 219.506
2503 2 -19.7032 -60.3818 -20.0041 -555.968 -216.666 -485.662 68.0714 -10.7195 73.0728 -263.466 355.638
7 2 -24.0976 -60.4908 -20.6247 -505.077 -1036.32 -638.306 -61.1956 25.0157 -47.1189 -257.636 498.965
3 1 -22.0662 -59.227 -17.2082 973.561 749.851 873.519 -43.8953 55.269 -41.1745 -814.95 240.217
6 2 -20.5036 -59.3717 -17.6762 -90.7183 -519.706 -623.688 -39.5041 -193.696 117.74 -257.15 631.09
9 2 -22.9729 -59.3296 -18.5305 -434.542 -446.821 -495.213 -30.5725 45.543 -32.8057 -265.438 123.863
107 2 -24.1839 -57.9969 -20.4691 -459.927 -583.801 -542.857 -129.148 59.9603 -121.011 -253.654 341.62
2603 2 -19.684 -57.8465 -19.4447 -565.501 -583.723 -699.668 -96.1411 71.2169 68.454 -264.621 269.983
12 2 -22.3062 -57.8313 -16.4863 -547.769 -405.13 -433.892 -5.18911 -100.311 191.945 -257.055 397.324
2597 2 -20.731 -57.3023 -14.5419 -429.631 -399.788 -682.378 -28.6167 72.5166 73.2719 -258.445 326.578
98 1 -22.1911 -57.0079 -15.0836 774.161 896.649 1155.86 -54.9426 46.3155 8.17138 -818.756 360.046
2596 1 -19.6239 -56.564 -20.3753 939.186 682.532 868.127 34.6251 100.172 -35.2625 -808.613 300.189
2602 2 -18.104 -57.7283 -14.7269 -154.272 -535.748 -511.618 90.841 -177.671 -103.017 -252.716 536.839
2505 2 -17.8637 -59.4658 -18.4022 -98.3565 -455.366 -586.393 14.7162 50.7656 39.4676 -266.052 452.168
5321 2 -15.8919 -46.5114 6.13461 -293.922 -591.163 -513.954 -42.0853 46.8868 -16.8264 -245.002 290.037
29898 2 -25.4128 -63.5318 2.73702 -329.103 -319.63 -538.977 -75.3034 -437.984 275.934 -255.521 931.153
7589 2 -10.4291 -57.1274 -14.6036 -358.515 -616.773 -716.441 61.5194 -148.431 74.7846 -255.085 443.394
5000 2 -11.8759 -61.0147 -16.5961 -503.764 88.0562 -673.858 37.8749 56.4046 -30.931 -268.885 704.675
2504 2 -16.5571 -61.1877 -17.0783 -495.701 -123.915 -430.568 134.918 -30.46 -206.928 -264.151 551.454
4993 1 -13.8013 -59.306 -19.2527 683.513 841.685 895.047 -219.943 -19.7397 -0.689481 -791.919 427.319
4995 1 -11.7691 -59.386 -16.9118 868.277 1021.05 991.548 -170.929 16.6352 -89.0469 -789.006 363.28
2499 1 -16.441 -59.6601 -17.6229 720.441 757.405 965.862 39.8213 131.086 -18.9691 -802.901 331.533
2502 2 -15.1574 -59.4781 -18.5175 -547.947 -481.757 -742.671 -66.9852 42.387 28.0978 -273.045 276.418
4999 2 -13.3621 -60.711 -20.0355 -544.402 -374.007 -591.597 -92.116 -159.807 92.9426 -268.516 409.01
5001 2 -12.6759 -58.997 -18.1975 -395.129 -490.918 -507.997 1.24487 139.808 -157.45 -271.284 379.629
2508 2 -16.3715 -58.6553 -16.4164 -579.384 -257.728 -595.206 -32.1945 50.459 51.1801 -266.102 356.943
5004 2 -12.3031 -58.4285 -15.7255 -538.329 -196.642 -475.576 -51.0318 -54.9991 212.289 -263.155 501.331
5099 2 -14.0309 -58.2129 -20.4295 -475.498 -443.169 -451.4 -99.8661 129.071 -213.33 -262.1 466.126
2594 1 -16.6206 -57.4204 -15.4054 977.515 963.131 828.6 78.383 -155.293 -113.945 -812.512 387.26
5090 1 -12.0349 -57.1226 -14.811 906.061 697.639 919.831 -11.8812 -46.6251 19.4908 -813.705 233.632
2600 2 -16.6489 -55.9831 -16.1686 -562.341 -131.866 -671.842 29.0269 -35.5379 19.5624 -262.859 501.898
5096 2 -12.3519 -55.8021 -15.5796 -619.337 -464.187 -620.328 122.428 -13.742 65.7587 -258.747 287.631
5319 1 -11.6231 -44.0221 3.10709 1127.01 1100.66 764.684 -123.81 103.279 -162.38 -837.831 528.692
2826 2 -15.7695 -43.9609 3.07283 -302.038 -546.577 -437.631 38.208 -177.035 26.5319 -244.46 381.501
103 2 -24.8916 -55.5138 -20.1453 -579.071 -403.173 -455.7 33.3959 206.45 103.813 -252.768 433.593
104 2 -22.5026 -55.4224 -15.3797 -506.946 -224.411 -541.899 -76.2346 52.1729 -80.6633 -248.753 368.841
2599 2 -20.0286 -55.2216 -19.6128 -651.763 -333.595 -670.251 55.1671 -3.57523 29.862 -260.003 345.397
105 2 -23.4761 -54.8534 -17.8147 -268.409 -540.951 -368.522 81.517 203.045 191.289 -254.725 557.143
97 1 -24.6361 -54.5544 -18.8686 993.896 804.282 1040.13 173.383 53.6388 14.5632 -830.817 382.505
102 2 -20.8853 -54.622 -17.2081 -278.43 -474.483 -593.585 -19.8373 -145.268 56.6385 -256.187 387.408
2593 1 -19.7332 -54.3642 -18.3267 877.296 626.686 1087.92 -73.9656 73.5104 -82.7261 -813.485 461.632
99 1 -22.3763 -54.4603 -16.655 961.68 675.443 1242.63 -23.3862 113.88 67.1017 -823.208 543.45
203 2 -24.1821 -53.1414 -19.4778 -517.424 -446.134 -775.177 93.4984 -174.912 -8.55651 -247.609 456.205
2699 2 -19.8534 -52.8111 -18.6989 -444.256 -408.719 -521.972 -8.15817 -45.5238 -93.843 -256.347 207.125
108 2 -22.6301 -52.9614 -16.101 -481.709 -468.087 -665.892 0.726709 -47.877 125.954 -250.732 301.81
2692 1 -19.5154 -51.8429 -19.9503 958.217 405.322 1169.29 -1.25738 95.7286 -3.27258 -816.167 703.19
194 1 -22.1976 -51.6392 -15.3879 670.531 761.137 1049.36 10.4215 150.775 -183.775 -842.949 535.952
2693 2 -20.7127 -51.6667 -14.8848 -509.724 -515.875 -585.421 15.5602 30.2087 72.157 -251.609 156.161
2704 1 -19.1893 -51.8799 -14.4069 748.342 1075.74 942.671 16.7082 196.186 -73.5258 -828.433 462.443
2698 2 -18.1272 -51.6304 -15.5124 -638.779 -567.254 -761.094 11.3405 76.9015 57.0144 -253.794 238.127
196 1 -24.2215 -52.1765 -20.7183 730.115 581.54 1114.69 3.62168 95.1419 33.063 -840.522 507.53
2601 2 -18.2898 -54.7859 -17.7469 -331.059 -408.669 -635.651 -73.1536 120.147 -23.037 -258.748 368.935
202 2 -23.1901 -51.465 -14.1657 -450.949 -587.815 -612.671 19.0379 -159.677 -20.8945 -240.094 318.81
199 2 -24.1222 -50.6418 -20.3591 -546.526 -531.217 -753.456 -75.8282 16.9256 -81.7357 -252.075 290.471
2695 2 -19.8401 -50.4099 -19.4667 -588.219 -771.169 -727.022 -173.662 -137.424 6.36273 -252.922 417.847
200 2 -22.3998 -50.3008 -16.3132 -573.781 -266.363 -590.073 -52.4173 13.7182 -45.825 -245.814 338.95
2782 2 -18.0683 -52.0922 -20.5595 -568.738 -398.662 -534.675 16.6267 -135.268 -24.6357 -261.334 286.068
2822 1 -17.3881 -46.5884 5.56582 797.408 997.939 966.513 -125 77.0173 -77.4782 -850.794 342.895
5095 2 -13.7919 -55.7999 -19.9499 -549.839 -456.464 -335.292 -39.4261 59.6719 125.453 -257.736 311.893
2598 2 -15.6885 -55.0187 -18.3681 -371.462 -414.085 -468.591 4.20439 -197.616 -57.0818 -256.693 366.19
5097 2 -13.2955 -54.5014 -17.6464 -374.798 -560.164 -644.966 -31.702 86.6059 37.1272 -252.315 294.828
2595 1 -16.789 -54.7941 -17.1745 871.476 608.276 1154.28 40.9919 -71.8815 83.8499 -819.417 515.093
5091 1 -12.1216 -54.5414 -16.5392 866.831 531.358 1007.17 -132.634 8.38732 -123.151 -818.717 527.07
5089 1 -14.2337 -54.6483 -18.923 868.388 1005.09 909.48 104.406 -95.7737 -68.8593 -815.511 298.669
2604 2 -16.5545 -53.293 -16.6321 -594.673 -188.592 -612.767 17.9129 1.22117 52.0601 -255.72 426.233
5100 2 -12.3244 -53.1652 -15.7852 -553.992 -468.492 -811.175 -85.9701 -102.912 -104.558 -255.647 426.831
5195 2 -14.08 -53.201 -19.7258 -426.906 -222.456 -436.967 108.198 -87.6905 -185.755 -255.141 453.5
5186 1 -12.1067 -51.674 -15.3525 773.023 684.422 1212.24 -7.20537 165.725 -104.206 -822.691 595.656
2690 1 -16.6454 -51.8143 -16.0173 805.725 661.288 933.795 -55.1397 81.367 -16.1754 -824.139 292.455
5189 2 -15.6513 -51.716 -14.7686 -419.398 -523.638 -455.803 -8.72034 77.1688 30.4065 -259.843 171.066
5094 2 -10.7091 -54.566 -17.2326 -337.642 -399.425 -557.425 155.025 -88.7944 -13.5643 -264.701 367.214
7685 2 -10.5766 -51.5994 -14.7888 -230.598 -444.453 -561.832 -123.122 148.564 11.7431 -256.529 443.529
2696 2 -16.422 -50.6655 -17.0789 -689.145 -450.63 -628.588 -11.0891 118.599 75.986 -256.475 325.577
5191 2 -13.8393 -50.6936 -20.1736 -564.459 -408.392 -726.26 -4.20039 40.6061 88.3926 -246.515 322.843
5192 2 -12.3525 -50.5309 -16.4768 -458.658 -218.357 -571.14 -27.4952 6.71137 -191.494 -258.446 458.082
5188 1 -14.1486 -52.0811 -20.8672 721.215 500.833 1418.18 -16.7587 -45.3914 -3.4057 -824.286 833.654
2689 1 -19.6711 -49.0247 -18.742 831.348 582.915 1115 -17.8886 98.8941 -74.8301 -829.611 509.655
198 2 -20.7607 -48.7982 -17.5966 -396.736 -509.56 -629.642 -78.2722 -78.3976 102.727 -255.834 330.415
193 1 -24.2598 -49.2418 -19.6842 864.971 789.963 1267.59 113.749 -18.178 -165.087 -835.119 565.243
201 2 -23.2499 -48.9984 -18.4706 -398.671 -494.152 -247.084 -0.498938 208.039 65.714 -246.117 435.162
195 1 -22.2593 -48.9404 -17.1139 1011.51 830.464 1028.88 -13.8315 177.724 -101.565 -831.442 403.116
204 2 -22.7296 -47.7167 -16.171 -529.691 -476.68 -454.61 -37.6191 -55.2242 122.156 -247.783 250.257
2795 2 -19.8041 -47.8151 -19.7683 -581.433 -297.393 -578.668 67.8914 -19.1389 -72.9187 -247.376 332.835
290 1 -22.2748 -46.824 -14.9296 862.105 833.094 949.57 -8.72226 110.125 -77.1566 -838.952 255.929
295 2 -23.9922 -45.4721 -20.0114 -580.417 -465.588 -483.096 -18.6453 -33.4111 109.44 -254.657 227.607
2791 2 -19.7243 -45.1886 -19.7735 -576.606 -353.702 -445.068 -28.1247 -66.6821 102.978 -253.81 291.88
296 2 -22.4001 -45.3174 -15.4299 -527.32 -434.436 -470.869 -48.3674 0.600857 -166.532 -245.797 311.109
294 2 -20.841 -44.6279 -17.4344 -372.512 -617.334 -549.681 0.314913 -79.0317 11.3764 -250.498 258.995
297 2 -23.4436 -44.3766 -17.6617 -392.082 -604.029 -499.998 -37.5509 74.7704 -1.9368 -254.062 233.898
291 1 -22.22 -44.279 -16.67 897.696 964.789 1010.51 62.6878 -59.0796 7.6008 -834.242 179.144
2785 1 -19.6722 -44.257 -18.435 672.816 865.52 989.39 -30.8285 22.3152 98.0091 -826.384 330.925
289 1 -24.4219 -44.3583 -18.945 885.312 985.844 914.59 59.4913 91.3998 -58.0439 -829.231 231.964
2793 2 -18.2504 -44.4642 -17.8007 -481.884 -475.115 -636.139 40.6242 79.6921 -9.36665 -253.651 221.701
2789 2 -20.7651 -47.1874 -14.5323 -314.696 -484.389 -533.113 -19.7847 134.447 58.2227 -252.477 324.052
2788 1 -19.6112 -46.4824 -20.6931 938.526 883.321 765.536 16.8258 -70.9372 -83.2997 -829.102 245.327
299 2 -24.1577 -47.9492 -20.7577 -403.843 -61.2622 -506.693 -43.3127 24.2814 -262.37 -248.275 614.072
2697 2 -18.13 -49.1361 -18.2586 -241.784 -531.851 -655.067 -111.322 -83.2578 -36.6206 -249.729 443.913
2794 2 -18.1071 -47.2313 -15.0558 -280.535 -553.059 -525.619 47.3709 -158.792 -14.8113 -248.575 388.046
7781 2 -10.4197 -47.1679 -14.3026 -393.024 -511.372 -694.238 -134.381 -20.2187 19.8861 -249.252 354.508
5190 2 -10.4659 -49.1045 -17.7837 -184.478 -392.428 -488.528 57.8795 -175.3 -94.0342 -256.329 448.587
2691 1 -16.5933 -49.2791 -17.7908 1026.54 712.415 899.932 -62.223 -52.2234 31.7679 -824.352 312.662
2694 2 -15.4615 -49.2223 -18.9668 -598.95 -539.665 -565.647 111.187 -58.3812 -25.291 -252.658 227.775
5187 1 -11.998 -49.1535 -17.2008 1139.91 768.969 1041.26 55.8789 13.761 31.1149 -819.113 351.531
5185 1 -14.0666 -49.1792 -19.639 696.27 601.908 999.38 -6.17136 25.6609 67.0887 -824.127 380.755
5286 2 -10.7581 -44.531 -17.2043 -358.939 -543.459 -596.191 -9.02724 -17.6351 85.9694 -252.967 264.402
5193 2 -13.0296 -48.918 -18.4494 -410.918 -502.59 -327.458 -96.4649 172.794 -37.2511 -256.523 380.359
5196 2 -12.064 -48.015 -16.0546 -630.311 -467.148 -696.774 -15.4477 81.0986 27.9973 -250.86 254.327
2700 2 -16.3877 -48.0346 -16.8106 -685.367 -436.822 -569.734 -0.924274 -14.7729 32.7312 -253.852 224.225
2786 1 -16.623 -47.0307 -15.6209 1005.68 872.107 907.068 -11.2708 49.945 -220.247 -824.48 409.615
5282 1 -11.8911 -47.03 -14.873 671.647 929.407 840.52 20.099 32.3023 -250.948 -835.826 494.669
2792 2 -16.4693 -45.5235 -16.2676 -545.308 -195.795 -556.77 24.3648 -30.4611 -221.229 -252.859 526.961
5288 2 -12.2071 -45.5002 -15.4059 -519.629 -260.98 -573.473 -138.397 142.054 -66.1409 -251.79 463.518
5287 2 -13.844 -45.6417 -19.9983 -672.581 -451.548 -773.961 15.2153 74.7472 -37.7892 -256.889 321.375
5289 2 -13.3467 -44.72 -17.6713 -337.963 -547.343 -545.123 -32.1911 80.5239 -0.276047 -261.16 256.79
2790 2 -15.8206 -44.7403 -18.6172 -404.122 -422.641 -501.696 -17.08 -44.4379 91.4861 -255.19 199.913
2787 1 -16.7103 -44.3661 -17.328 696.941 878.638 1135.74 52.1535 89.2828 133.791 -821.017 481.251
5283 1 -12.2431 -44.4054 -16.5486 945.079 766.446 934.666 -12.5766 -23.3395 -4.38074 -822.731 179.79
5281 1 -14.2492 -44.5536 -18.9682 995.832 749.85 647.928 126.885 32.6282 -221.295 -814.974 542.563
5285 2 -15.5746 -47.3021 -14.4068 -487.194 -522.323 -550.482 -37.3783 14.1846 -43.551 -256.317 116.195
5291 2 -13.9476 -48.1507 -20.8226 -533.739 -491.593 -604.597 2.54132 20.837 50.99 -262.167 137.497
2512 1 -19.3115 -62.0149 -14.1116 769.235 906.534 1001.41 158.691 242.963 -92.7289 -805.461 565.08
4913 2 -20.944 -67.7759 -7.44571 126.497 -675.202 -231.636 164.722 310.747 -53.7231 -233.869 929.309
4915 2 -19.1941 -65.9795 -13.7702 -453.308 -497.163 -288.048 11.8487 -116.092 261.252 -275.177 531.125
2424 2 -21.7093 -63.7276 -9.52023 -567.164 -491.881 -292.272 -30.2649 -79.1511 202.686 -253.663 453.129
14 1 -21.8384 -62.7787 -8.26041 1200.3 1057.44 844.956 97.4227 191.138 -346.629 -850.345 771
22 2 -23.3132 -62.9435 -7.65821 -396.745 -572.463 -433.414 77.6157 -224.896 -40.8434 -238.132 447.872
23 2 -24.5199 -63.3046 -12.8532 -582.589 -668.49 -724.964 -6.84942 -74.3475 97.7681 -257.861 246.615
2519 2 -19.4793 -63.4791 -13.4172 -496.792 -306.875 -386.289 77.7105 -59.5044 -153.696 -267.509 356.23
2413 1 -24.5815 -64.7354 -12.2065 907.188 689.502 957.124 108.167 102.797 23.4283 -813.738 359.444
4909 1 -19.3347 -64.8401 -12.5945 1016.88 769.202 923.919 -66.1991 124.888 -160.745 -799.783 429.439
2415 1 -21.7665 -64.9868 -10.5695 968.207 1255.61 829.796 -45.5168 274.469 133.38 -810.546 653.544
2421 2 -23.1489 -64.9054 -11.4773 -157.474 -603.786 -320.737 116.27 239.851 116.453 -253.484 637.815
2418 2 -20.574 -65.122 -11.6136 -503.408 -487.71 -233.214 6.81013 -247.823 90.7023 -269.291 527.331
2419 2 -24.888 -65.7156 -13.4894 -399.722 -466.905 -145.73 61.1239 153.761 167.484 -279.418 502.373
2328 2 -21.9287 -66.3253 -9.62346 -629.247 -281.771 -298.051 38.5856 -134.331 -313.06 -256.008 684.083
2414 1 -22.127 -66.828 -8.12502 835.229 1154.04 1012.68 -89.8283 236.471 163.843 -796.807 590.808
2422 2 -23.6871 -67.0617 -7.92751 -78.6209 -331.79 -723.343 4.68672 -35.3345 -27.4575 -270.004 567.989
2420 2 -21.272 -65.6803 -7.17118 88.0253 -922.292 -358.864 144.185 173.297 97.9204 -228.066 974.771
4918 2 -18.5259 -66.3618 -7.32176 121.919 -363.238 -639.667 20.0545 -265.157 48.6514 -266.186 815.558
4917 2 -17.9983 -64.8741 -11.6561 -258.329 -500.589 -185.768 -19.3826 227.871 128.787 -259.433 536.837
16 1 -24.8097 -61.8221 -13.2475 906.634 686.875 1047.56 -3.63999 51.7953 49.1033 -814.111 338.301
2513 2 -20.7126 -62.9266 -7.11183 -401.305 -815.197 -125.885 -81.1592 220.743 55.6241 -233.494 732.381
7505 2 -10.4187 -62.5284 -7.27036 -589.14 -732.449 -506.095 23.6296 38.9116 65.2504 -244.56 241.506
9905 2 -10.6632 -67.7397 -7.40908 -73.9189 -657.089 -376.182 21.3828 434.862 -30.8261 -222.118 909.24
7408 1 -14.3747 -67.3651 -13.9545 812.977 1065.67 1144.7 17.9537 138.359 -63.6864 -759.87 400.794
7414 2 -13.2547 -66.6609 -7.76261 137.983 -374.196 -695.128 31.4027 -177.73 39.9251 -263.112 795.112
5008 1 -14.453 -62.2781 -13.7991 978.243 779.694 909.741 -13.6379 -118.845 -26.5809 -813.222 274.888
4910 1 -17.0669 -66.5569 -7.99636 780.169 1064.01 944.831 -77.2944 163.375 22.6115 -806.739 400.589
7411 2 -14.5259 -66.3233 -12.7081 -587.884 199.39 -352.766 -140.914 -45.6164 494.745 -265.604 1135.83
4916 2 -15.7998 -65.5319 -7.73446 35.331 -962.659 -620.349 -54.1636 4.17099 134.061 -226.721 913.405
4914 2 -15.5776 -64.7331 -10.77 -301.771 -516.092 -534.055 -41.3051 -229.489 35.3394 -262.268 465.796
7405 1 -14.4249 -64.8646 -11.9048 1072.67 993.631 1152.95 -24.9974 69.423 -81.4199 -805.438 235.069
5015 2 -14.5602 -63.6505 -12.9728 -580.605 -239.031 -501.108 105.305 -98.0342 -117.393 -258.208 446.409
7416 2 -11.3476 -63.6015 -9.54869 -558.85 -575.133 -415.974 95.3287 5.58009 176.02 -245.116 378.564
5014 2 -13.0253 -62.8415 -7.63405 -292.1 -581.595 -626.978 90.4306 -99.6813 10.3194 -244.398 392.003
5006 1 -11.5764 -62.5729 -8.29575 872.205 1045.08 949.784 -63.4143 -137.809 -174.697 -845.083 427.887
2510 1 -17.195 -62.5989 -8.05911 1101.7 1013.81 768.288 -204.802 255.189 -190.14 -843.519 720.584
4920 2 -17.3742 -63.6545 -9.24369 -679.794 -437.967 -419.535 145.38 -20.3632 173.165 -254.02 466.782
4911 1 -17.0713 -64.8274 -10.2933 853.173 1081.31 907.986 101.813 302.928 85.3984 -816.91 608.95
7407 1 -11.4316 -64.8304 -10.5496 923.525 1049.23 725.699 -80.8009 215.689 -57.027 -826.638 498.708
7413 2 -12.8374 -64.7659 -11.4045 236.696 -548.553 -486.042 91.8862 80.2259 121.279 -254.444 812.527
5009 2 -15.6823 -62.56 -7.50056 -281.613 -639.07 -420.211 0.722649 130.922 29.9204 -245.596 389.295
4824 2 -17.355 -66.2483 -9.52187 -684.388 -272.555 -523.887 -90.0835 -92.7568 -311.654 -247.985 686.155
7320 2 -11.5455 -66.1967 -9.70023 -621.568 -369.546 -338.216 43.3633 -15.6581 -237.877 -250.441 498.523
7406 1 -11.6737 -66.6667 -8.15761 645.109 1143.08 1172.62 -225.529 -240.547 -86.2518 -807.313 782.339
7409 2 -16.0039 -67.6076 -7.35634 296.427 -786.933 -473.931 25.2252 126.585 98.7142 -229.01 1005.86
106 2 -23.244 -57.438 -13.9603 -560.061 -618.589 -478.472 33.4009 -139.502 57.2016 -251.721 293.944
10 2 -23.4316 -61.1537 -13.7731 -287.159 -545.779 -630.631 10.4859 -179.194 -68.3063 -259.503 454.628
20 2 -21.618 -61.2791 -8.98117 -568.268 -185.717 -385.883 16.3727 -117.966 -189.547 -242.394 510.073
21 2 -23.4626 -60.1016 -10.4733 -431.621 -605.837 -572.894 -186.968 13.3691 76.0215 -243.722 385.282
15 1 -21.9109 -60.1296 -10.0482 937.68 1061.59 971.528 44.3154 251.274 -134.016 -842.342 511.366
2509 1 -19.5202 -59.9016 -11.895 1029.33 802.704 871.065 -119.633 -69.5906 -56.9215 -828.47 328.214
13 1 -24.9035 -59.6892 -11.0289 886.944 1028.74 847.205 216.904 105.784 -229.605 -840.268 600.158
2517 2 -18.5188 -59.8821 -10.6723 -557.159 -634.455 -847.826 -15.0405 -47.1139 18.7975 -241.815 276.392
18 2 -20.9603 -60.3034 -11.3154 -453.036 -600.161 -488.478 7.24807 -243.276 26.4583 -249.881 444.405
2515 2 -18.834 -60.9027 -12.9923 -434.74 -267.205 -412.477 -15.6618 -123.714 207.179 -251.397 447.499
24 2 -21.6313 -58.5488 -9.6392 -590.972 69.0839 -585.37 -10.3482 -94.9855 65.3889 -241.622 687.184
2615 2 -19.5428 -58.4855 -12.6223 -611.032 -444.915 -594.519 108.156 -38.5561 -8.74828 -251.284 254.768
119 2 -24.653 -58.3102 -11.8843 -510.917 -345.865 -330.735 47.9452 -110.391 -84.3772 -249.127 307.866
2608 1 -19.3398 -57.416 -13.7714 824.955 863.043 1125.19 105.536 75.1452 89.7138 -829.474 393.26
112 1 -24.5959 -57.3261 -13.156 835.625 743.555 987.907 48.5513 254.606 -156.337 -839.317 566.176
110 1 -21.8643 -57.0417 -9.05228 1093.3 971.374 1106.84 -112.3 140.177 -6.81761 -844.008 337.078
124 1 -24.5052 -57.127 -7.34309 899.272 1101.35 1087.8 155.24 62.6341 1.47646 -845.94 349.793
118 2 -23.3823 -56.9052 -8.49942 -270.94 -538.124 -481.136 0.863941 -253.611 40.9982 -241.576 507.355
2609 2 -20.8799 -56.9436 -7.73483 -601.468 -590.08 -360.116 17.6334 8.67357 0.376277 -243.85 238.309
116 2 -21.5702 -55.8456 -10.0702 -628.598 -263.371 -475.423 68.2086 -115.357 -88.6414 -242.978 422.328
2614 2 -18.3315 -56.7421 -7.48052 -580.254 -619.146 -524.109 -15.9083 -130.977 80.7368 -237.75 280.406
115 2 -24.7682 -55.8392 -12.6656 -609.516 -584.27 -748.002 -155.583 -162.562 30.1481 -244.31 421.824
19 2 -25.3269 -60.8885 -11.9901 -660.695 -213.962 -480.251 -97.3617 -92.6048 179.683 -247.414 550.039
5093 2 -15.5456 -57.3483 -14.2725 -493.411 -564.323 -528.096 1.92666 46.8382 75.3319 -260.184 165.497
5011 2 -14.4024 -61.0677 -12.7725 -490.116 -129.492 -219.338 -50.1857 -88.7572 303.361 -262.704 642.647
2516 2 -17.571 -61.1338 -8.65168 -531.11 -269.383 -373.904 122.163 -149.271 -117.382 -244.502 452.793
5012 2 -11.6243 -61.151 -9.09329 -573.192 -410.972 -528.957 75.413 -73.0496 -118.42 -247.249 310.219
2514 2 -15.9343 -60.2908 -10.6359 -385.215 -529.606 -339.764 35.4922 -248.286 93.128 -256.936 494.179
5013 2 -13.3607 -59.9592 -10.5704 -463.288 -544.944 -541.416 79.7632 92.1187 93.5256 -255.726 277.808
2511 1 -17.2387 -59.9759 -9.76224 922.138 828.303 966.041 -52.151 -137.108 -153.127 -835.99 386.977
5007 1 -11.8052 -59.9682 -10.1225 845.728 967.795 1117.87 56.9153 -77.7512 -33.6218 -821.97 294.939
5005 1 -14.6142 -59.9512 -11.5145 802.867 967.37 1115.43 -124.629 -34.1191 69.0686 -812.424 371.136
5010 2 -10.9181 -60.2311 -11.4763 -104.164 -516.583 -259.67 -71.504 -220.035 111.775 -257.052 572.89
5111 2 -14.8557 -58.4488 -12.0424 -537.422 -249.896 -608.585 2.19139 -37.0886 67.5991 -262.233 355.03
5016 2 -11.4396 -58.4486 -9.59838 -481.298 -164.481 -573.344 36.9157 42.9328 90.7156 -256.87 415.107
2520 2 -17.1919 -58.5091 -9.11464 -559.485 -178.209 -618.282 -146.688 -135.619 100.559 -250.494 566.844
5098 2 -13.0323 -57.1822 -13.5499 -72.8326 -532.005 -510.34 78.4451 -197.934 22.5474 -257.233 582.134
5104 1 -14.5843 -57.2156 -12.9904 1103.03 740.458 988.487 -6.27205 -58.8082 -7.51277 -818.131 337.208
2606 1 -17.178 -56.9831 -8.58711 836.814 859.182 1261.75 -5.81178 104.553 -47.4201 -833.898 459.57
5102 1 -11.709 -56.9732 -9.11281 885.895 695.54 1078.05 -36.6897 16.0072 -58.2902 -837.189 353.182
5110 2 -13.2268 -56.7856 -8.66658 -468.218 -540.846 -520.302 -8.84795 -253.561 117.859 -244.934 488.868
5105 2 -15.7631 -56.6858 -7.87029 -569.099 -477.448 -600.696 41.39 39.4014 84.6222 -248.502 208.743
5108 2 -11.2508 -55.8382 -10.1236 -590.398 -411.118 -614.782 102.051 -45.59 -9.70291 -250.327 273.62
5107 2 -14.8085 -55.7622 -12.2911 -577.555 50.6103 -535.261 -27.4481 -10.0196 223.034 -250.56 722.224
5116 1 -14.2788 -56.9349 -7.44541 864.023 942.847 1033.53 13.1001 7.35503 -164.275 -844.333 321.279
7601 2 -10.9124 -56.7412 -7.69353 -647.457 -587.684 -396.915 24.2784 135.333 64.1739 -235.162 347.039
2612 2 -17.3117 -55.8349 -9.72189 -541.13 -82.1004 -628.981 43.4712 -76.1116 -43.6357 -254.123 536.202
2611 2 -18.905 -55.9384 -13.0929 -448.774 -22.7455 -472.328 99.4427 22.4933 325.966 -242.247 736.23
2711 2 -19.0558 -53.4212 -13.8407 -560.758 -209.497 -358.001 -3.98637 16.8063 -152.565 -246.194 404.965
208 1 -24.6448 -51.6729 -13.4878 940.811 1021.02 852.3 83.5259 15.6936 -119.991 -841.653 293.646
111 1 -21.6469 -54.3834 -10.8087 981.655 845.795 842.847 126.289 270.624 -301.083 -843.289 747.247
109 1 -24.7471 -54.4369 -11.9538 910.091 673.841 1345.18 -96.2648 91.1642 -177.282 -841.764 703.513
2605 1 -19.085 -54.4029 -12.5397 941.425 952.172 974.581 -113.992 33.8513 -65.4418 -835.549 236.911
114 2 -20.5506 -54.2288 -11.912 -391.95 -534.827 -753.363 -38.1223 -3.70975 33.8189 -250.72 327.457
117 2 -23.2058 -54.4095 -11.3652 5.60989 -545.304 -612.469 20.2859 79.0992 96.9844 -235.196 627.09
120 2 -21.3733 -53.3167 -9.7226 -596.445 -564.814 -548.435 -61.7697 -13.7207 67.268 -247.608 165.448
215 2 -24.8872 -53.175 -12.9333 -474.724 -273.415 -553.387 131.924 -108.499 -83.8453 -249.04 413.723
214 2 -23.1789 -52.4376 -8.06131 -335.972 -539.933 -469.798 -52.0555 -128.023 93.4095 -252.438 340.131
206 1 -21.6742 -52.2847 -8.50518 957.044 1116.86 794.11 -4.0248 95.1203 -165.052 -831.888 432.491
212 2 -21.4728 -50.7507 -9.09024 -501.037 -253.889 -411.05 27.9804 -21.9897 -146.732 -250.555 339.602
2707 2 -18.9331 -50.8453 -13.1799 -574.115 -195.974 -318.848 -30.9455 -78.6747 298.444 -250.393 632.672
211 2 -24.8641 -50.6328 -12.316 -550.645 -572.477 -590.577 -51.0589 -45.6625 66.317 -246.993 168.729
213 2 -23.2262 -49.4975 -10.6999 -396.314 -513.408 -648.487 -55.8148 36.495 10.7371 -245.18 247.915