ITEM: TIMESTEP
980000
ITEM: NUMBER OF ATOMS
29952
ITEM: BOX BOUNDS pp pp pp
-2.5615833775063237e+01 3.5601128117061187e+01
-9.4036776264156643e+01 1.0402207059835538e+02
-2.1035324467156940e+01 3.4903177627851115e+01
ITEM: ATOMS id type x y z v_StrAtomXX v_StrAtomYY v_StrAtomZZ v_StrAtomXY v_StrAtomXZ v_StrAtomYZ c_PEAtom v_VMS
7481 2 -14.3183 -69.5488 -16.6434 193.868 -197.122 -747.926 -210.386 302.368 -185.83 -275.107 1087.33
4896 2 -15.9465 -71.1595 -17.8668 -382.441 -107.992 -625.605 -55.4794 34.0385 -103.898 -167.812 496.268
7392 2 -11.993 -70.6609 -15.1561 243.351 -600.128 -924.15 -77.9206 130.219 39.6707 -266.412 1078.68
4982 1 -15.9146 -69.8933 -17.1104 928.963 321.596 1448.7 295.592 -117.962 -157.624 -812.552 1154.6
4812 2 -16.738 -69.8195 -15.6499 -288.479 -236.413 -655.625 -154.842 -165.652 77.2539 -266.873 573.392
7396 1 -13.2117 -69.6901 -15.5131 257.283 216.901 2079.62 89.2603 -0.355176 -51.4329 -742.492 1851.48
7478 1 -10.6815 -69.7632 -15.1506 374.733 129.768 1993.96 44.5273 -34.2208 96.5946 -743.362 1765.22
2406 2 -21.0865 -63.3397 -17.9477 -316.656 -593.257 -570.515 -50.7624 -158.853 24.8477 -270.735 394.994
4897 1 -20.0933 -63.9192 -19.0332 618.108 855.678 969.663 -12.0125 198.806 336.172 -773.919 744.682
4905 2 -18.5378 -63.8607 -18.6556 -203.485 -426.085 -630.931 -58.0728 -82.8251 -120.041 -282.582 459.389
2403 1 -22.3005 -63.8051 -16.9765 841.607 425.266 914.202 46.0213 142.687 -106.055 -782.309 556.785
2409 2 -23.4913 -64.169 -17.9603 -545.823 -442.018 -296.983 -55.7149 19.6281 -19.4755 -278.469 241.81
2401 1 -24.4143 -64.538 -19.2575 899.253 913.493 805.814 127.237 161.853 99.7545 -787.804 408.992
2408 2 -21.7472 -65.1486 -16.3562 -509.29 -516.71 -733.835 -77.3747 -33.4695 88.2513 -273.055 305.77
4985 2 -20.4946 -65.4901 -19.1656 -493.268 -188.958 -590.471 89.4797 -64.2967 -133.355 -276.368 470.538
2407 2 -23.6555 -65.424 -20.3234 -500.206 -692.296 -260.906 58.0392 -124.796 18.9558 -282.352 445.012
2416 1 -24.8887 -66.5391 -14.7842 539.137 882.137 1119.58 -155.095 -7.66302 -57.2085 -749.75 581.059
2402 1 -22.0945 -66.7106 -16.3427 753.102 784.825 1100.41 98.6426 281.31 314.77 -764.702 821.25
2486 1 -20.8671 -67.0854 -19.1278 1110.23 779.325 1137.71 102.453 58.875 -63.0574 -768.508 416.127
2410 2 -23.5643 -66.6839 -15.6531 -113.097 -495.453 -431.439 -257.246 -302.959 -51.9891 -288.284 779.619
2316 2 -21.8328 -67.3146 -17.8087 -450.495 -396.328 -200.669 -80.3147 -343.666 -1.6963 -273.364 652.298
4912 1 -19.4081 -67.3289 -14.6937 484.351 686.176 1280.91 343.723 234.477 -33.8411 -736.319 1018.47
2494 2 -21.8081 -67.2102 -20.4784 150.943 -327.661 -73.8548 -249.066 631.617 -271.539 -265.281 1332.71
4904 2 -18.2466 -67.5871 -15.9509 -272.375 -482.979 -172.49 -392.338 4.81087 -60.6349 -315.825 740.442
4901 2 -20.8322 -67.3179 -15.4142 221.021 -498.253 -450.012 -155.678 214.925 -191.816 -284.431 898.136
2400 2 -19.4375 -67.6808 -18.5469 169.794 -455.911 -131.528 -80.5729 603.885 -76.3404 -282.485 1193.63
5324 2 -11.4302 -45.5288 3.56103 -493.444 -353.479 -274.542 -92.2717 38.1974 -221.619 -246.861 462.747
4900 1 -17.9882 -67.5685 -17.7053 1144.54 624.503 1198.86 197.461 -12.3944 413.281 -739.806 965.13
7394 1 -11.8415 -66.9316 -15.6528 628.35 409.676 1444.47 2.11322 28.1092 331.189 -756.765 1106.25
7401 2 -13.5627 -65.1779 -19.0024 -217.913 -431.122 -95.5719 68.5299 494.191 -149.395 -268.603 948.805
4908 2 -16.889 -63.8038 -16.7237 -440.121 -91.1706 -302.838 145.064 -0.607928 297.34 -263.316 648.901
5003 2 -13.8977 -63.2195 -20.6409 -328.194 -383.015 -627.804 106.835 -67.5605 -67.7466 -287.746 371.551
7404 2 -12.1275 -63.7037 -17.1261 -313.793 -297.428 -236.847 138.907 79.4632 214.49 -275.635 468.803
4902 2 -15.887 -64.1786 -19.1527 -232.853 -461.478 -525.842 188.589 -217.802 -209.147 -282.751 671.837
4899 1 -17.1541 -64.5114 -18.1719 616.699 883.954 1182.52 -163.141 62.625 172.528 -771.824 649.05
7393 1 -14.6558 -64.5124 -20.0635 647.68 861.365 1191.48 -74.5688 248.116 349.855 -758.814 890.919
7398 2 -11.0979 -65.0072 -19.2114 -657.597 -593.875 -623.738 -78.0391 -70.483 -125.543 -270.167 288.975
7395 1 -12.1939 -64.9849 -18.1023 684.397 819.236 939.948 -37.5785 164.528 499.645 -788.388 939.899
4903 2 -17.3558 -66.1162 -17.9927 -360.696 -19.7316 -579.085 225.991 -88.7099 -301.752 -286.581 829.7
7400 2 -11.9318 -66.1684 -17.0354 -509.619 -305.101 -557.112 -51.0439 152.343 -366.822 -271.589 731.377
7402 2 -13.2378 -66.7368 -14.9442 47.6567 -499.596 -1010.05 145.068 17.1861 9.04347 -275.986 950.614
7397 2 -16.0053 -67.5628 -14.5404 179.022 -336.04 -651.441 244.092 58.1231 -20.6088 -288.988 846.976
4898 1 -17.2444 -68.5392 -14.8865 273.215 882.384 1271.84 450.646 -23.8708 98.061 -731.161 1183.13
4990 2 -16.805 -68.6489 -17.7614 26.8156 -369.238 -669.582 -357.015 222.988 -127.904 -271.48 972.958
7486 2 -11.8565 -68.6427 -15.8408 -17.6832 -152.507 -1242.15 -64.4235 49.8669 -4.90468 -297.293 1171.49
7399 2 -13.8221 -68.9615 -14.2008 -384.974 20.3766 -701.735 -273.931 -158.716 268.135 -266.827 953.636
7493 2 -10.5971 -62.8622 -15.047 -112.087 -384.588 -440.533 88.863 298.791 -15.6656 -262.338 620.392
11 2 -24.8077 -63.2548 -20.1157 -470.322 -667.255 -495.97 0.893308 -90.5487 -141.755 -258.357 345.358
2507 2 -20.2915 -63.0574 -20.3911 -501.732 -438.456 -487.752 31.0933 -13.3757 -261.736 -270.164 460.726
2412 2 -22.6728 -62.7276 -15.8915 -617.013 -374.965 -632.439 -6.01339 -114.4 67.7666 -267.79 340.157
2506 2 -18.2461 -62.0993 -15.2716 -613.484 -497.075 -610.276 62.9854 -92.0296 5.8972 -265.401 224.949
2501 2 -20.8228 -61.6774 -14.6085 -92.1166 -386.557 -550.68 -244.189 31.1411 23.8678 -262.406 587.757
2 1 -22.3305 -61.3714 -15.1228 983.273 674.702 1097.66 -22.5487 125.29 -247.778 -804.349 613.511
1 1 -24.1644 -59.3792 -19.5554 912.7 723.428 763.69 82.3759 -42.932 52.7538 -817.573 253.101
2497 1 -19.5437 -59.378 -18.9525 757.663 767.202 1128.26 65.532 88.9229 -195.742 -803.691 534.272
8 2 -22.3626 -60.1648 -16.2189 -587.264 -381.606 -468.692 -72.0564 -10.9395 -28.6299 -261.748 224.419
2503 2 -19.9037 -60.6727 -19.7831 -483.444 -644.24 -456.464 -26.7118 -14.5348 1.64458 -277.358 183.586
7 2 -24.1548 -60.8202 -20.271 -495.923 -478.202 -442.881 -74.9771 81.9833 81.0323 -261.375 242.724
3 1 -22.0684 -58.9657 -17.1944 988.641 688.238 732.122 131.299 221.36 -96.1082 -818.662 552.643
6 2 -20.5613 -59.0976 -17.7197 -421.035 -483.319 -476.353 -104.3 -183.847 82.3105 -255.383 397.308
9 2 -23.0555 -59.1726 -18.4615 -493.752 -457.842 -582.529 29.3717 -39.7177 202.09 -260.083 377.095
107 2 -23.9353 -58.2372 -20.6227 -607.202 -452.69 -654.556 -38.0138 -32.7859 -26.3295 -253.674 207.54
2603 2 -19.6734 -58.0891 -19.994 -523.325 -197.922 -466.688 24.0869 -42.4295 -217.483 -257.965 489.595
12 2 -22.1862 -57.6146 -16.3886 -676.002 -441.43 -376.896 44.2839 -53.1508 193.159 -255.561 447.902
2597 2 -20.7292 -57.2972 -14.3306 -306.246 -359.322 -667.843 -79.1849 81.4155 58.8801 -258.626 404.319
98 1 -22.1588 -56.8644 -14.9287 870.718 819.801 1041.41 -73.5029 50.747 -30.9925 -813.91 259.296
2602 2 -18.1671 -57.579 -14.9374 -201.804 -517.998 -496.269 22.9039 -184.056 -12.4178 -255.964 444.123
2500 1 -19.7432 -61.6706 -20.9822 658.91 639.494 803.493 -75.9047 -31.2548 -1.38627 -775.977 210.498
2512 1 -19.3286 -62.1049 -14.0754 968.382 708.216 1074.63 127.717 195.337 -11.1376 -805.73 519.995
2505 2 -18.0533 -59.3594 -18.4099 -327.552 -422.116 -589.174 17.25 126.881 37.3727 -261.312 325.619
27462 2 -25.6034 -59.2776 -18.8355 -529.531 -455.169 -490.129 49.2089 -114.73 -146.176 -252.804 339.127
4994 1 -11.8862 -62.5444 -15.9779 844.17 742.13 1403.66 -202.775 -39.9576 106.265 -799.768 736.58
5002 2 -13.1608 -62.3593 -14.936 -162.175 -420.395 -265.871 -70.8189 -348.757 158.073 -254.485 711.024
4997 2 -15.7708 -62.2841 -14.772 -404.592 -440.376 -390.71 34.1042 140.492 -29.121 -265.079 259.263
2498 1 -16.8806 -62.3247 -15.9299 552.208 981.157 1036.76 -81.7468 214.103 -33.2108 -799.447 609.769
5000 2 -11.7977 -61.0683 -16.6105 -477.692 -113.575 -676.707 -0.814686 118.167 -12.6101 -267.527 535.745
2504 2 -16.6571 -61.2156 -17.113 -431.351 -124.279 -353.032 69.3835 0.463194 -222.998 -265.489 489.903
4993 1 -13.9403 -59.2467 -19.2319 838.036 678.798 1139.26 -154.001 69.3197 8.34194 -789.819 499.832
4995 1 -11.7846 -59.5083 -16.9784 706.548 840.287 867.488 -170.667 -25.8821 -67.5079 -806.682 354.016
2499 1 -16.6038 -59.6878 -17.7333 672.907 882.526 956.82 -158.619 128.935 -203.419 -805.857 560.823
2502 2 -15.4795 -59.49 -18.8147 -359.523 -393.769 -679.994 179.647 -56.6225 -59.0639 -270.083 458.043
4999 2 -13.4345 -60.6764 -19.8934 -508.781 -248.387 -696.93 8.86252 -112.18 154.565 -267.416 511.72
5001 2 -13.012 -59.0918 -17.9286 -298.856 -482.361 -607.257 -48.2999 106.516 -195.763 -264.109 477.7
2508 2 -16.4322 -58.6781 -16.551 -629.01 -498.899 -556.287 23.7245 -98.1869 135.001 -258.052 313.117
5004 2 -12.0125 -58.5232 -15.7276 -504.287 -377.049 -616.718 -6.50229 -132.977 242.207 -252.75 521.827
5099 2 -13.7669 -58.2073 -20.4185 -465.195 -449.163 -464.087 110.344 -53.1202 -90.484 -266.439 264.188
2594 1 -16.6677 -57.4714 -15.5125 1088.06 837.078 963.679 -5.99263 149.935 -243.731 -816.703 541.304
5090 1 -11.9379 -57.2078 -14.806 569.099 744.898 1232.26 26.5441 8.77996 -148.262 -819.633 649.923
5093 2 -15.5373 -57.4464 -14.3594 -217.606 -499.866 -391.476 37.0982 130.214 43.0179 -261.735 348.386
291 1 -22.1149 -44.587 -16.7714 843.077 631.933 993.221 54.6021 25.5881 -27.9314 -834.357 334.778
2596 1 -19.4912 -56.6693 -20.7093 850.019 778.844 1149.15 8.95778 17.4824 -62.7039 -810.946 358.872
196 1 -24.362 -52.2404 -20.5653 869.027 788.837 1084.8 -4.68369 36.3617 23.6034 -830.71 275.677
2599 2 -20.0921 -55.6221 -19.6175 -542.742 -548.136 -558.594 -78.2575 -146.216 88.6193 -253.292 325.983
103 2 -24.5469 -55.7653 -20.1886 -698.324 -507.629 -323.344 -61.0443 136.574 36.782 -252.131 420.313
104 2 -22.3986 -55.3105 -15.2559 -519.693 -328.793 -442.223 -67.9248 98.8029 -134.708 -256.199 353.867
105 2 -23.6885 -55.012 -17.6173 -204.156 -646.196 -262.996 25.9127 181.696 125.823 -256.555 566.922
97 1 -24.6973 -54.8031 -18.8875 1076.96 775.306 939.203 157.995 173.124 119.792 -823.445 525.616
102 2 -21.0244 -54.7322 -17.3532 -415.492 -561.707 -625.037 -15.4557 -16.4014 66.0464 -256.623 221.945
2593 1 -19.8929 -54.6321 -18.426 638.849 710.703 806.598 -5.26702 203.476 -149.13 -830.673 460.715
99 1 -22.4725 -54.5195 -16.6681 1077.45 802.258 1026 -71.1054 97.5073 -39.1629 -819.504 335.429
203 2 -24.2927 -53.3982 -19.4429 -506.286 -644.543 -542.263 6.99813 -82.8025 -125.204 -251.355 288.408
2699 2 -19.8068 -53.1518 -18.9782 -575.824 -568.912 -768.333 50.4454 -59.6377 104.454 -251.548 299.123
108 2 -22.7219 -52.9546 -16.3878 -597.44 -273.09 -600.709 -19.955 -99.8843 144.649 -250.764 447.403
2692 1 -19.5954 -52.0461 -20.0642 808.567 666.829 954.128 -31.7958 152.274 95.5023 -831.496 402.326
194 1 -22.3489 -51.61 -15.5983 1021.27 774.861 1122.52 -10.0223 91.0768 -80.0612 -830.098 374.612
2693 2 -20.8486 -51.8225 -15.0275 -185.39 -501.531 -565.435 -78.8543 -14.3863 60.1645 -255.905 392.894
2704 1 -19.3606 -51.8911 -14.4287 884.256 843.436 872.296 100.822 118.33 -35.4114 -829.373 278.539
2698 2 -18.2041 -51.5306 -15.465 -342.353 -523.026 -586.817 31.9952 -141.708 38.0259 -247.89 340.425
2601 2 -18.4554 -54.9621 -17.8207 -320.9 -587.701 -625.932 31.4919 -70.7045 90.4455 -251.56 354.059
202 2 -23.5251 -51.3955 -14.4942 -309.989 -531.01 -456.018 -25.5422 -185.544 46.3375 -252.917 386.753
199 2 -24.1136 -50.7783 -19.9082 -719.302 -347.949 -658.211 -4.22852 -46.6755 12.2264 -236.709 354.946
2782 2 -18.1809 -52.1052 -20.7136 -632.723 -554.434 -631.632 14.6091 -33.1359 8.37826 -257.327 100.944
5307 1 -12.0341 -44.5695 -2.6246 947.859 911.576 981.068 91.7122 -22.681 -122.574 -821.473 274.726
2600 2 -16.6084 -56.1454 -16.4879 -630.987 -236.873 -370.35 -19.4206 -29.4736 -125.641 -255.018 414.284
5096 2 -12.3222 -56.0219 -15.8145 -526.212 -553.5 -497.917 -36.6286 -20.9764 44.7044 -259.939 116.866
5095 2 -13.7589 -55.7287 -19.8386 -603.597 -527.459 -447.321 -36.2788 -38.0161 67.8396 -262.881 201.026
2598 2 -15.7671 -54.7927 -18.539 -365.447 -542.402 -620.424 4.58856 -142.629 9.73599 -253.447 335.535
5097 2 -13.4891 -54.482 -17.4929 -530.453 -540.104 -577.593 4.2053 -69.5132 122.164 -261.834 247.35
2595 1 -16.9037 -54.8642 -17.3892 903.606 982.865 1086.86 53.8585 -1.03767 -6.1069 -819.714 184.815
5091 1 -12.2607 -54.6047 -16.4982 978.138 624.439 727.143 47.6326 -45.5657 -55.8646 -815.85 348.887
5089 1 -14.2384 -54.5415 -18.8792 741.535 727.272 819.239 -2.68513 -39.4385 -71.7134 -818.911 165.728
2604 2 -16.7751 -53.378 -16.6421 -564.759 -327.171 -607.898 -21.7308 -33.3419 96.7432 -253.14 318.415
5100 2 -12.1615 -53.3408 -15.556 -635.832 -179.14 -711.857 109.113 116.233 -7.55761 -251.765 570.514
5195 2 -14.0679 -53.2092 -19.7148 -564.98 -249.214 -414.619 16.4654 33.6278 -166.101 -254.908 402.259
5186 1 -11.9372 -51.7476 -15.233 745.497 830.693 1052.08 -16.0309 -132.105 -115.629 -815.291 410.329
2690 1 -16.7694 -51.9155 -16.1355 958.311 530.79 950.221 -126.562 46.6939 -32.6705 -832.811 487.009
5189 2 -15.6811 -51.7608 -14.9613 -316.694 -545.192 -368.654 25.0833 157.198 27.7505 -250.232 348.382
5094 2 -10.8396 -54.476 -17.272 -311.469 -510.746 -610.341 61.3823 10.0473 12.3006 -261.378 285.548
7685 2 -10.4464 -51.5918 -14.7412 -408.541 -532.108 -651.819 -40.2362 -75.1066 115.01 -264.373 325.351
5194 2 -13.151 -51.463 -14.1914 -123.294 -571.382 -455.599 72.8041 -185.799 4.99576 -258.212 530.893
2696 2 -16.4631 -50.9002 -17.3057 -537.16 -267.845 -644.314 16.2943 -11.9319 -55.4554 -255.181 351.17
5188 1 -14.0663 -52.0389 -20.91 784.223 750.221 1168.39 10.9198 22.0494 -179.386 -810.033 510.054
5192 2 -12.0308 -50.8005 -16.4976 -622.947 -225.961 -521.748 43.0656 -26.19 -45.2681 -260.187 376.077
5191 2 -13.5871 -50.6192 -20.395 -550.055 -164.668 -583.91 -86.6446 -38.8554 97.5046 -261.479 467.215
5130 2 -10.4444 -54.1676 1.97253 -476.409 -655.839 -621.355 11.6259 75.1193 91.7027 -247.755 264.119
2695 2 -19.8601 -50.5495 -19.5606 -568.899 -267.481 -618.186 -43.6317 -42.1002 75.584 -248.263 369.195
200 2 -22.2888 -50.3166 -16.5603 -605.513 -400.018 -468.003 64.5158 -87.1381 -119.403 -247.595 333.041
299 2 -24.2447 -48.2791 -20.8779 -555.797 -353.485 -446.569 -64.7578 124.571 -125.877 -249.484 370.719
2689 1 -19.5314 -49.0576 -19.005 572.872 763.06 1258.26 22.6724 29.9151 3.09995 -829.413 616.304
198 2 -20.5731 -48.7185 -17.8335 -349.96 -510.407 -531.053 44.6562 -119.823 -30.6983 -251.241 285.245
193 1 -24.2424 -49.2191 -19.5764 803.146 833.767 758.31 -87.9984 -22.9815 -80.7882 -840.236 220.718
201 2 -23.1091 -48.9516 -18.5625 -509.229 -732.001 -676.66 -93.1182 -118.233 -59.5029 -254.812 344.867
195 1 -22.0959 -48.9305 -17.3525 947.852 988.228 688.208 76.0951 15.422 -74.8567 -833.19 338.267
204 2 -22.436 -47.803 -16.2707 -627.473 -601.057 -201.651 9.66993 -4.40048 136.743 -247.455 476.663
2795 2 -19.7054 -48.0015 -20.2148 -480.713 -298.508 -388.527 -25.8649 100.707 -177.424 -253.432 389.578
290 1 -22.134 -46.9736 -14.8939 1001.55 1048.33 1011.44 -56.7816 130.916 14.5286 -823.722 252.083
295 2 -24.1131 -45.7599 -20.2454 -537.372 -339.916 -178.803 -70.9689 7.10531 244.609 -241.061 539.927
2791 2 -20.0475 -45.4217 -19.9314 -469.093 -426.052 -279.012 0.959031 38.1902 189.529 -249.036 376.754
296 2 -22.3063 -45.4321 -15.4006 -504.612 -424.139 -386.507 -33.8109 3.23867 -222.145 -244.885 403.021
294 2 -20.6849 -44.8915 -17.4208 -395.472 -623.633 -589.813 30.1231 -108.271 28.1144 -251.33 292.825
297 2 -23.2555 -44.931 -17.8419 -521.507 -633.718 -593.382 -34.1379 -6.30597 53.3277 -251.512 147.78
2789 2 -20.545 -47.2427 -14.5278 -120.839 -517.475 -593.461 -58.4627 19.3003 11.2268 -253.369 452.75
2697 2 -18.085 -49.1617 -18.4313 -379.576 -467.638 -608.076 -55.3383 128.285 -9.95677 -256.722 314.167
2794 2 -17.913 -47.4764 -14.9775 -362.199 -551.65 -358.172 3.12227 -259.854 48.4377 -250.688 496.298
2788 1 -19.6066 -46.5674 -20.9992 873.588 1118.42 824.618 -100.609 -117.902 -80.0692 -826.48 406.98
2793 2 -18.1453 -44.6907 -18.1845 -387.262 -460.143 -588.625 35.8406 64.3712 80.1405 -257.344 258.331
7529 2 -10.5054 -62.6092 6.79761 -113.774 -591.95 -425.868 36.5287 248.656 103.784 -214.108 631.368
5283 1 -12.1162 -44.5588 -16.6615 868.267 954.745 723.394 -18.1615 -101.113 -13.1586 -827.123 270.509
5106 2 -10.2839 -54.4265 -12.032 -258.984 -603.674 -521.243 -10.4274 -65.0005 72.5879 -253.82 354.967
2691 1 -16.5388 -49.3953 -17.9234 938.254 949.262 1161.37 1.04441 136.571 20.9944 -811.125 323.613
2694 2 -15.549 -49.367 -19.216 -258.829 -463.873 -368.001 11.7338 -195.825 79.192 -262.984 407.243
5187 1 -11.9643 -49.3285 -17.1743 1114.86 966.596 845.987 -17.6957 -108.494 -52.1502 -812.927 314.36
5185 1 -14.003 -49.2186 -19.6557 1071.31 884.615 1027.7 5.72788 16.3069 -143.787 -805.043 302.546
5193 2 -13.0394 -49.166 -18.3699 -312.274 -549.891 -376.475 -33.0056 214.906 -82.4077 -262.202 455.547
5196 2 -12.2685 -48.2412 -16.019 -627.073 -476.806 -429.158 -71.0125 -67.5237 104.455 -260.167 305.859
2700 2 -16.1373 -48.2878 -16.8135 -500.572 -227.832 -319.408 -32.3885 -70.0949 264.568 -256.436 534.484
2786 1 -16.5226 -47.1338 -15.6968 995.635 890.573 706.545 -44.4371 -108.391 -18.1215 -823.834 326.18
5282 1 -11.9754 -47.1806 -14.9087 1050.5 827.851 950.999 -60.4694 -57.365 -282.878 -817.406 546.095
2792 2 -16.6116 -45.7776 -16.4869 -588.042 -651.66 -581.614 33.0494 -12.9809 61.8567 -259.161 140.565
5288 2 -12.3236 -45.7188 -15.5774 -584.391 -197.562 -501.624 -60.9733 77.7907 -139.657 -252.028 460.75
5287 2 -13.6197 -45.3313 -20.393 -539.394 -448.868 -419.766 6.98778 37.3154 85.1314 -259.775 194.274
5289 2 -13.1554 -44.7405 -17.8167 -526.238 -599.059 -449.914 5.95267 31.6911 17.9457 -255.228 144.124
5285 2 -15.4106 -47.2525 -14.5803 -586.062 -606.191 -633.444 -121.465 -14.6973 -115.291 -255.582 294.078
5291 2 -13.8103 -47.8991 -20.6435 -548.668 -174.307 -381.736 22.6252 -62.1878 -159.166 -261.71 441.202
4996 1 -13.9166 -61.6671 -21.0045 529.473 664.083 1090.68 -227.238 54.016 -59.9389 -774.318 657.243
7781 2 -10.3757 -47.2541 -14.6018 1.73693 -383.812 -472.981 81.6036 146.124 129.966 -256.256 570.689
5286 2 -10.6269 -44.7328 -17.2258 -511.199 -508.312 -524.94 34.9114 -54.4542 -6.65821 -251.588 113.675
5022 2 -10.4157 -59.5778 -3.86534 -283.867 -664.378 -572.494 -20.5256 -130.429 104.979 -233.312 451.253
2790 2 -15.5811 -44.8307 -18.6825 -492.977 -553.478 -562.039 -28.6329 -93.3946 -1.68571 -253.885 181.349
4906 2 -18.5428 -68.4846 -13.9564 98.9933 -456.083 -860.497 -281.216 10.7853 -16.2312 -266.239 966.71
4913 2 -21.008 -67.6841 -7.35488 -216.363 -813.102 -272.066 119.191 262.716 -40.1491 -238.709 761.889
4915 2 -19.1405 -66.0691 -13.765 -473.89 -459.825 -407.721 85.0084 -59.984 280.494 -276.98 521.68
2424 2 -21.4174 -63.8663 -9.60077 -576.312 -674.235 -281.819 51.501 -42.9736 131.123 -248.551 436.153
22 2 -23.3311 -63.3039 -7.80695 -174.632 -490.079 -354.571 61.2826 -352.241 -2.66433 -239.579 677.225
23 2 -24.5755 -63.148 -12.7482 -549.429 -274.672 -599.441 -245.946 21.5192 31.4527 -257.885 526.839
2519 2 -19.3946 -63.5198 -13.4295 -514.166 -390.356 -544.437 15.4757 -60.8659 13.7305 -268.693 179.975
2413 1 -24.364 -64.6498 -12.2662 1266.99 757.285 1015.07 64.5937 120.303 -94.1794 -802.645 526.693
4909 1 -19.1655 -64.9217 -12.6576 892.991 728.369 935.807 -29.1804 33.3668 -294.999 -811.265 550.409
2415 1 -21.5757 -65.0971 -10.5831 1112.37 887.321 561.197 -67.3275 290.403 89.9885 -825.208 722.005
2421 2 -22.8336 -64.9088 -11.6201 -89.9443 -436.944 -107.628 -31.4169 322.146 -1.00975 -259.732 654.892
2418 2 -20.3008 -65.2412 -11.555 -644.802 -522.566 -290.411 36.6052 -262.517 16.8561 -249.722 555.727
2419 2 -24.7662 -65.5567 -13.5689 -378.37 -371.962 -178.991 57.6181 133.244 161.805 -285.713 424.593
2328 2 -21.7321 -66.3376 -9.62969 -664.669 -598.46 -366.341 -63.9813 -71.0414 -174.462 -258.086 438.593
2414 1 -22.0803 -66.7713 -8.14005 857.448 1124.19 875.731 35.0018 56.2135 237.482 -799.354 498.959
2422 2 -23.6515 -66.9894 -7.94025 -166.45 -378.018 -652.003 -34.2464 -192.265 -55.8526 -262.626 549.154
4918 2 -18.6622 -66.3874 -7.39186 17.2905 -385.687 -650.316 -62.794 -216.646 5.53754 -264.632 701.275
2428 1 -25.055 -66.8642 -7.18804 699.861 1124.31 868.347 48.5211 84.5751 38.3675 -813.601 412.274
2420 2 -21.3384 -65.5596 -7.17013 -16.1666 -719.535 -301.934 43.8872 254.873 14.9745 -225.502 759.422
4917 2 -17.8505 -64.8471 -11.7601 -605.651 -541.081 -425.944 -9.96654 161.24 173.364 -252.186 439.68
7408 1 -14.445 -67.4054 -14.067 756.972 728.436 1134.76 -91.8605 121.254 -340.917 -770.197 756.581
7414 2 -13.3368 -66.706 -7.86914 -16.7954 -356.751 -872.341 19.2253 5.42303 -9.37694 -259.36 747.089
4910 1 -17.2153 -66.5249 -8.07289 850.298 1161.45 954.49 -159.243 134.389 116.277 -811.629 496.056
7411 2 -14.3766 -66.5316 -12.7829 -655.866 -277.087 -728.479 -6.1055 81.33 197.399 -261.048 559.558
4916 2 -15.9633 -65.5277 -7.70028 45.4348 -990.857 -637.39 -104.636 -92.3761 -65.8791 -222.967 950.795
4914 2 -15.3724 -64.9181 -11.0245 -189.997 -521.852 -471.591 -76.759 -242.137 47.8233 -253.864 544.429
7405 1 -14.1989 -65.0893 -12.1021 955.01 796.89 882.073 -5.8345 -27.2966 -267.405 -823.516 485.43
5015 2 -14.4035 -63.9271 -13.1858 -564.437 -142.018 -558.181 -5.73905 -3.21756 -63.6557 -257.448 433.728
7416 2 -11.435 -63.7447 -9.56964 -598.5 -455.786 -660.593 94.3916 116.372 113.325 -244.542 372.786
4920 2 -17.2608 -63.6985 -9.41006 -590.684 -597.182 -260.925 15.3276 -140.187 187.022 -248.361 524.899
4911 1 -16.91 -64.8324 -10.4624 1193.65 1013 758.599 70.3164 34.9746 12.3547 -830.236 402.833
7407 1 -11.3954 -64.9898 -10.5638 776.413 1321.96 728.844 -32.9963 122.665 -196.367 -833.344 699.946
7413 2 -12.6968 -64.9734 -11.5336 -247.066 -624.461 -440.645 -8.78961 99.8795 133.916 -249.623 436.811
4824 2 -17.3517 -66.1749 -9.62267 -684.847 -469.189 -423.8 64.062 -251.054 -307.43 -238.119 737.084
7320 2 -11.5679 -66.4011 -9.69542 -604.957 -260.562 -277.752 152.156 -72.8741 -224.329 -245.631 591.051
7406 1 -11.7734 -66.7038 -8.13651 566.15 1111.11 1076.81 -209.98 -167.34 121.647 -816.418 734.947
7409 2 -16.0463 -67.6476 -7.69121 247.232 -819.692 -484.254 -89.5731 74.9095 16.3214 -230.355 966.779
7420 1 -14.8123 -66.6794 -7.2367 713.784 1206 890.149 -114.345 46.2079 -179.839 -819.63 573.786
9905 2 -10.7397 -67.7431 -7.44347 -21.5911 -695.047 -440.806 91.3494 334.361 45.2226 -224.745 844.702
7412 2 -10.8784 -65.5993 -7.30397 -196.857 -978.04 -558.923 146.886 141.944 39.0926 -229.354 766.977
14 1 -21.7795 -62.9655 -8.29288 1349.04 930.473 1060.89 79.1152 102.514 -127.935 -851.868 486.854
106 2 -23.3371 -57.3543 -13.9835 -306.35 -544.987 -418.54 48.4477 -198.349 56.1355 -260.37 421.051
10 2 -23.4819 -61.2145 -14.0018 -353.531 -526.183 -612.796 -2.7243 -165.127 52.8784 -257.582 377.46
16 1 -24.8889 -61.7051 -13.4256 972.635 710.66 816.126 -3.34721 133.354 -331.157 -817.599 659.168
20 2 -21.8296 -61.4964 -8.94483 -634.126 -313.548 -416.828 -49.3514 -85.8876 -226.658 -239.866 513.698
21 2 -23.441 -60.31 -10.7224 -264.491 -409.485 -515.188 -128.077 69.726 67.6296 -258.228 353.61
15 1 -21.9576 -60.2797 -10.0325 981.369 732.068 1273.98 115.206 164.357 -180.394 -830.36 662.722
2509 1 -19.3562 -59.8852 -11.7735 1027.12 908.696 1114.68 37.6061 -59.3264 -149.382 -820.943 337.353
13 1 -24.8417 -59.6966 -11.1879 900.984 1060.02 801.797 60.9703 156.074 -278.143 -811.123 605.99
2517 2 -18.3444 -59.8645 -10.5365 -415.533 -526.171 -426.758 -26.6126 153.012 163.971 -250.36 405.151
18 2 -20.8166 -60.3248 -11.1879 -229.154 -392.083 -406.307 74.3154 -312.702 -29.8692 -256.115 584.515
2515 2 -18.8873 -60.9287 -12.9865 -447.641 -204.095 -173.181 -9.38948 -61.6415 398.191 -251.087 745.072
24 2 -21.7674 -58.8628 -9.35316 -521.723 -62.8173 -644.719 -0.233895 -65.265 89.7518 -253.386 564.899
2615 2 -19.2427 -58.4805 -12.565 -450.338 -286.385 -342.064 157.315 -164.906 -219.703 -255.684 566.997
119 2 -24.6408 -58.1178 -11.7672 -501.983 -185.934 -371.48 -17.0171 -33.4157 -78.7399 -258.232 313.833
2608 1 -19.2376 -57.3394 -13.7371 779.857 850.763 1344.09 93.3744 73.4042 -155.904 -820.875 631.361
112 1 -24.7011 -57.2626 -13.0876 1072.61 709.213 952.875 66.3464 91.2809 -25.7572 -814.725 378.255
110 1 -21.8498 -57.242 -8.99123 930.593 1145.87 1316.57 -53.7053 163.94 -286.827 -815.736 669.567
124 1 -24.5085 -57.3279 -7.41929 936.472 876.8 909.265 98.2447 138.774 -146.387 -826 392.04
2614 2 -18.163 -56.8345 -7.58467 -509.791 -675.713 -475.604 -22.8508 -52.7477 127.183 -244.68 304.649
19 2 -25.3515 -60.5894 -12.3998 -733.02 -309.735 -597.211 34.257 -19.0927 153.925 -257.354 464.565
2513 2 -20.7316 -62.8512 -7.0726 -413.836 -734.715 -191.882 -14.0107 189.099 155.43 -238.226 635.442
118 2 -23.3121 -56.9271 -8.42278 -271.009 -476.19 -535.592 49.4823 -213.606 41.9878 -258.421 455.339
5014 2 -12.9884 -62.9023 -7.63942 -377.561 -494.4 -407.089 64.4505 -204.328 94.9835 -240.183 419.345
2510 1 -17.0988 -62.7525 -8.08453 1151.35 904.636 931.028 -100.576 197.574 -59.2786 -857.938 461.572
5009 2 -15.6099 -62.6881 -7.51067 -408.929 -827.11 -547.038 88.1578 71.1957 123.182 -225.253 469.295
5008 1 -14.4393 -62.4479 -13.8805 1030.15 924.941 1081.36 1.78554 -69.4243 -70.8391 -814.507 220.46
5006 1 -11.5505 -62.7179 -8.35804 1042.25 995.985 1014.02 -22.1205 28.7746 -280.754 -856.671 491.987
5011 2 -14.425 -61.3038 -12.7372 -508.48 -86.1994 -244.002 -72.7092 -164.928 353.289 -255.739 780.057
2516 2 -17.3441 -61.2451 -8.55234 -731.515 -223.341 -551.555 142.595 -96.6865 -15.8905 -239.325 537.567
5012 2 -11.4703 -61.2493 -9.04572 -544.759 -344.377 -430.232 50.1115 -77.6997 -154.381 -237.264 357.024
2514 2 -15.7882 -60.3602 -10.4933 -347.089 -511.286 -274.493 22.2947 -261.66 93.3107 -250.293 526.461
5013 2 -13.1356 -60.2085 -10.7777 -209.929 -512.142 -631.682 35.2602 165.078 65.128 -243.206 489.853
2511 1 -17.0595 -59.99 -9.54215 1172.29 733.324 989.298 -22.2885 14.5356 -242.872 -837.074 570.033
5007 1 -11.6171 -60.1397 -10.2274 905.99 916.261 1273.21 -6.71135 -0.218479 -130.547 -844.699 427.142
5005 1 -14.5671 -60.1426 -11.5429 1026.09 966.681 1198.44 -84.3186 -43.6654 -89.2547 -827.298 307.282
5010 2 -10.634 -60.3588 -11.4869 -330.589 -467.151 -266.234 59.8919 -293.119 -46.3461 -243.287 553.661
5111 2 -14.6731 -58.6757 -12.2108 -596.107 -199.739 -560.169 43.2231 6.31115 26.0103 -257.762 389.754
5016 2 -11.3433 -58.6566 -9.61826 -489.346 -447.431 -585.456 34.8825 26.9268 163.025 -248.067 317.142
2520 2 -16.7733 -58.5608 -8.95701 -622.752 -396.623 -629.039 -37.7486 -50.6157 -26.5861 -250.619 258.218
5098 2 -13.0155 -57.282 -13.5763 -298.323 -498.499 -448.085 39.7487 -191.807 68.5157 -250.727 402.136
5104 1 -14.5523 -57.3529 -13.0732 989.234 704.893 985.028 -137.113 113.679 -116.655 -822.862 464.398
5102 1 -11.4962 -57.1645 -9.17316 877.959 863.814 911.136 -49.737 -86.5369 -173.21 -841.747 348.801
5116 1 -14.0497 -57.0412 -7.31995 960.846 1171.44 1068.49 2.32201 -46.975 -20.1414 -833.191 202.787
2609 2 -20.7715 -57.0386 -7.77625 -293.451 -651.083 -177.343 2.32332 222.46 41.4929 -246.718 580.131
116 2 -21.5673 -56.2064 -10.3116 -468.599 -83.6572 -211.335 -6.40549 -65.2075 -263.273 -254.132 579.785
2711 2 -19.0289 -53.2806 -13.776 -558.702 -574.014 -437.69 -80.1461 16.8661 18.4421 -260.022 194.616
2611 2 -18.8059 -55.8798 -13.1769 -557.308 -141.207 -654.356 120.264 27.2076 118.014 -250.731 557.075
115 2 -24.8307 -55.7379 -12.6202 -596.456 -558.68 -565.427 -66.6986 -61.1416 203.692 -255.466 387.621
208 1 -24.8774 -51.7161 -13.7175 881.997 1043.28 789.146 -24.0361 -7.77132 -96.062 -836.008 281.439
111 1 -21.638 -54.6862 -10.8512 860.541 825.003 1078.49 -50.8514 214.786 -213.332 -824.722 582.41
109 1 -24.643 -54.3718 -11.8718 816.028 744.452 1109.31 -33.6422 12.9742 -254.113 -823.95 556.552
2605 1 -19.0066 -54.3758 -12.6194 1097.22 795.278 918.962 8.01104 81.4847 -98.149 -822.753 343.707
114 2 -20.5313 -54.4854 -12.0099 -227.846 -506.449 -523.278 127.26 -191.654 64.7691 -248.916 503.941
117 2 -23.1071 -54.3583 -11.4263 -281.138 -493.97 -581.787 -7.4529 -25.5043 104.955 -256.972 326.9
120 2 -21.2589 -53.7665 -9.59966 -448.095 -304.877 -338.258 -60.7159 -71.8466 290.049 -254.478 543.853
215 2 -24.7852 -53.0953 -12.9211 -605.876 -272.37 -408.359 59.8116 -27.4406 -104.992 -247.878 361.148
214 2 -23.192 -52.5106 -8.21393 -300.777 -444.411 -372.756 61.6537 -260.074 33.0841 -263.009 482.779
206 1 -21.6459 -52.4366 -8.66926 1130.38 950.073 877.65 -23.727 72.3024 -84.1585 -811.638 299.054
212 2 -21.3253 -51.1434 -9.5283 -553.828 -181.807 -431.181 -27.8944 -44.8076 -51.8554 -260.898 352.475
2707 2 -19.2594 -50.7686 -13.257 -676.681 -443.346 -498.26 68.2867 88.3368 94.5059 -248.661 329.91
2705 2 -20.7 -52.4092 -7.33038 -412.367 -654.697 -525.829 -8.50448 50.0546 157.199 -254.029 354.923
2613 2 -17.9336 -54.1376 -11.4572 -348.991 -551.311 -172.51 -60.1214 140.875 10.2903 -258.667 422.473
2606 1 -16.9206 -57.0157 -8.56175 866.786 792.128 953.468 -42.6253 -6.987 -84.2451 -839.287 215.518
5110 2 -12.9527 -56.9106 -8.54642 -383.488 -609.014 -206.546 -0.133842 -258.822 92.193 -245.527 590.373
7601 2 -10.4923 -56.8164 -7.99616 -634.592 -677.321 -457.427 22.4911 7.56167 96.788 -246.048 265.662
7697 2 -10.5199 -52.4806 -7.4989 -462.094 -641.358 -449.839 -28.9894 164.659 58.9889 -235.449 358.86
5105 2 -15.5221 -56.6738 -7.85335 -357.704 -674.694 -582.927 -36.3477 86.4482 38.4353 -241.791 332.61
5108 2 -11.2621 -56.141 -10.4239 -488.475 -474.276 -485.014 15.6642 32.9612 -73.3987 -247.572 142.555
2612 2 -17.0448 -55.9835 -9.75546 -634.492 -387.919 -674.087 -25.5673 -44.1429 -12.5002 -249.886 283.558
5107 2 -14.8616 -55.9399 -12.39 -577.858 -273.072 -640.855 3.1225 -35.9261 1.91338 -257.655 346.375
5200 1 -14.6489 -51.7871 -13.6756 1067.53 933.069 980.925 -8.45774 154.626 -230.939 -822.756 495.859
5103 1 -11.4212 -54.6543 -10.9327 1006.88 889.241 966.872 -124.146 87.4347 -67.8719 -834.363 306.143
2607 1 -16.9737 -54.444 -10.1529 1105.77 821.011 827.484 40.7798 164.956 -257.746 -826.174 604.324