ITEM: TIMESTEP
1600000
ITEM: NUMBER OF ATOMS
29952
ITEM: BOX BOUNDS pp pp pp
-2.5615833775063237e+01 3.5601128117061187e+01
-1.1464021335388104e+02 1.2462550768807978e+02
-2.1035324467156940e+01 3.4903177627851115e+01
ITEM: ATOMS id type x y z v_StrAtomXX v_StrAtomYY v_StrAtomZZ v_StrAtomXY v_StrAtomXZ v_StrAtomYZ c_PEAtom v_VMS
4896 2 -16.2319 -72.3558 -18.3054 -320.563 -85.7776 -495.955 0.618516 1.79016 -49.9803 -175.519 366.839
7392 2 -11.9012 -72.1264 -15.3622 323.173 -304.978 -927.252 -80.5801 103.798 -1.99426 -275.672 1106.57
4982 1 -15.9583 -71.3513 -17.2393 801.841 429.01 1711.86 40.7092 -122.044 -84.2292 -797.493 1173.61
7478 1 -10.7284 -71.0601 -15.4597 306.519 234.973 2023.71 7.4502 -234.14 113.961 -723.646 1811.16
4812 2 -16.7213 -71.1956 -15.6911 -360.226 -111.263 -559.256 -171.311 -159.726 241.317 -264.136 700.305
7396 1 -13.252 -71.2217 -15.6496 374.793 284.566 1855 -81.0467 -93.7386 -76.1266 -709.849 1547.96
7481 2 -14.3953 -71.2886 -16.6875 12.7672 -96.0078 -906.166 -127.202 309.287 -174.322 -288.641 1087.66
7486 2 -11.8264 -70.0724 -16.2191 105.781 -56.1468 -1095.58 79.2929 -70.6867 -60.903 -318.984 1148.89
7399 2 -13.7722 -70.4262 -14.3819 -316.466 49.6926 -706.457 -253.695 -234.88 295.704 -282.028 1024.63
4990 2 -16.8247 -69.9254 -17.711 245.11 -336.226 -662.398 -403.85 288.304 -231.889 -265.359 1238.51
4901 2 -20.9858 -68.9811 -15.1042 121.933 -501.379 -458.046 -246.575 203.519 -220.481 -284.636 903.26
2400 2 -19.5173 -69.1404 -18.5849 51.9661 -493.757 -313.947 -215.274 431.779 -159.933 -284.751 1003.53
4904 2 -18.4891 -69.0615 -16.0443 -25.4379 -583.946 -130.164 -319.621 121.164 32.6221 -311.682 786.203
4912 1 -19.491 -68.9354 -14.6115 302.042 883.967 1299.79 237.978 132.082 34.6768 -735.039 989.632
2316 2 -21.8466 -68.7292 -17.6129 -463.641 -486.203 -70.4505 -14.8044 -293.233 -114.507 -273.261 679.653
2494 2 -22.0087 -68.718 -20.2897 15.222 -399.221 -204.656 -157.964 587.642 -172.571 -272.885 1152.89
2410 2 -23.6496 -68.1838 -15.546 78.1926 -525.522 -654.25 -255.001 -212.239 -97.8764 -287.492 904.272
2486 1 -20.9844 -68.5023 -19.0271 1162.11 811.586 1070.57 104.342 -138.049 15.9814 -764.871 435.617
2402 1 -22.1064 -68.255 -16.0992 616.645 876.037 1265.28 171.565 263.373 270.034 -769.224 913.74
2416 1 -25.0209 -67.9697 -14.8444 324.254 1228.48 1196.57 -40.8179 66.1248 98.7679 -749.561 914.972
2407 2 -23.8181 -66.8664 -20.1681 -401.723 -431.541 -254.159 -193.146 -204.468 108.132 -268.22 547.247
4985 2 -20.6215 -66.9195 -19.1511 -516.061 -242.063 -554.841 42.2977 -34.7657 -79.6771 -279.43 339.474
2408 2 -21.6941 -66.6999 -16.0819 -469.382 -356.98 -734.489 -176.93 -86.4749 -31.1276 -266.998 481.63
2401 1 -24.4471 -65.9168 -19.0094 695.62 1092.77 773.792 70.8671 179.569 281.448 -788.652 694.431
2409 2 -23.4632 -65.9305 -17.7045 -575.035 -603.501 -389.668 -124.387 -56.5361 -135.505 -275.875 389.278
2403 1 -22.384 -65.3759 -16.7103 753.411 550.99 837.441 4.20626 134.318 -60.5139 -785.179 360.842
4897 1 -20.2737 -65.3825 -18.8077 533.548 703.37 929.007 8.825 250.703 484.346 -776.337 1005.3
4905 2 -18.7587 -65.253 -18.3139 -205.456 -525.3 -698.996 32.8277 -28.5803 -110.477 -269.773 479.922
2406 2 -21.2205 -64.8479 -17.6762 -550.626 -585.156 -550.007 -88.5711 -97.6493 28.1573 -271.567 236.079
2507 2 -20.3952 -64.529 -20.1391 -469.441 -474.731 -514.419 62.3706 -66.1567 -88.5156 -280.954 223.872
11 2 -24.6139 -64.4957 -19.6699 -378.948 -662.305 -503.052 -53.216 3.984 -135.754 -274.929 352.644
2412 2 -22.8955 -64.3321 -15.6742 -581.5 -73.0502 -539.582 117.778 -20.4897 130.261 -262.176 576.839
2506 2 -18.3432 -63.3984 -15.3291 -247.829 -493.138 -572.136 -76.9336 -166.589 104.265 -258.714 468.424
2501 2 -20.9102 -63.2555 -14.5833 -385.332 -456.094 -627.857 -152.624 -45.6353 31.8881 -263.11 354.746
2 1 -22.3672 -62.8237 -15.0483 876.098 976.321 995.061 5.40303 45.6362 -10.6654 -803.748 137.662
2512 1 -19.3968 -63.5511 -14.1333 814.481 638.046 946.558 86.2171 53.1611 -96.4219 -817.361 361.312
4900 1 -18.177 -69.0195 -17.7249 911.404 820.054 1027.05 107.532 -198.285 446.404 -752.859 884.734
2500 1 -19.7617 -63.1995 -20.7748 560.113 931.229 641.91 -113.891 -82.1143 60.2943 -765.733 429.08
120 2 -21.3947 -55.058 -9.4673 -645.611 -480.127 -397.447 112.533 118.907 160.538 -251.568 453.462
4898 1 -17.2023 -69.875 -14.9735 174.361 956.293 1336.06 404.355 126.956 20.8121 -721.356 1262.04
7397 2 -15.9297 -68.9286 -14.6179 357.053 -344.988 -588.32 179.111 217.556 29.0169 -295.995 981.662
7394 1 -11.8528 -68.3976 -16.0141 963.564 267.297 1375.54 37.0824 -133.565 445.635 -733.187 1262.85
7402 2 -13.3231 -68.1938 -15.2007 292.065 -389.118 -652.362 8.79413 -253.491 58.0767 -283.877 956.947
4903 2 -17.6968 -67.4713 -17.8642 -459.084 -246.27 -657.153 222.883 13.2399 -154.413 -274.626 589.711
7400 2 -12.032 -67.5497 -17.3265 -578.617 -165.314 -688.409 -61.4574 132.665 -314.022 -280.622 766.949
7401 2 -13.7757 -66.5769 -19.109 -195.707 -615.108 -262.108 87.5836 337.417 -84.8402 -270.341 733.903
7395 1 -12.376 -66.3104 -18.2706 742.402 977.495 918.937 3.26158 -30.5902 600.892 -780.516 1063.48
7398 2 -11.2364 -66.3266 -19.3925 -250.314 -688.959 -481.24 -108.989 -166.806 -53.4123 -268.187 521.641
7393 1 -14.9105 -65.9562 -20.0565 632.14 965.498 663.935 17.4392 18.6222 361.924 -765.991 704.599
4899 1 -17.3001 -65.9288 -18.0316 614.865 735.993 1016.17 -190.071 -12.3331 198.309 -778.051 594.914
4902 2 -16.2156 -65.7782 -19.171 -377.505 -518.519 -514.865 33.998 -81.2566 -171.847 -284.695 362.289
4908 2 -16.8854 -65.1805 -16.6717 -547.075 -179.886 -438.061 90.3114 -61.3052 134.407 -272.917 443.421
7404 2 -12.4943 -64.9901 -17.3033 -289.952 -146.81 -20.2259 -5.11925 35.5109 318.421 -278.54 602.221
5003 2 -14.2424 -64.5387 -20.4469 -361.517 -236.789 -593.108 102.513 -35.5238 -0.771521 -283.621 365.228
4997 2 -15.8409 -63.7782 -14.6819 -572.541 -436.092 -417.914 -51.4982 96.7817 -92.813 -265.791 288.666
5002 2 -13.3649 -63.8981 -14.9181 -568.394 -461.107 -435.6 -29.0832 -84.1689 138.164 -268.238 309.768
7493 2 -10.8055 -63.9674 -15.3272 -206.601 -334.133 -438.22 56.406 395.203 36.8555 -262.923 722.876
4994 1 -12.2742 -63.8579 -16.0808 876.864 692.886 1370.18 -49.1895 86.9207 65.6404 -788.404 640.951
2498 1 -16.8616 -63.739 -15.9396 930.825 817.455 965.652 -46.3563 31.2963 -41.1049 -791.179 180.189
2504 2 -16.5791 -62.5618 -16.9885 -533.575 -263.398 -492.992 -108.247 85.1114 -57.5445 -271.865 361.243
5000 2 -12.2714 -62.407 -16.8109 -435.397 -372.422 -618.035 93.2437 7.60963 -116.346 -268.781 340.133
8 2 -22.3199 -61.7585 -16.2116 -612.57 -341.505 -409.923 6.28866 85.7442 -64.9272 -265.043 307.3
7 2 -24.4741 -62.0946 -20.5578 -402.388 -379.004 -545.15 -15.0598 59.5099 171.966 -263.76 352.545
2503 2 -19.8304 -61.9353 -19.7717 -531.825 -367.658 -561.894 -13.3387 -82.8539 49.446 -277.167 247.495
9 2 -23.1592 -60.8311 -18.5727 -481.417 -387.972 -414.574 13.0809 105.683 125.634 -267.451 297.196
1 1 -24.2735 -60.734 -19.7056 833.406 582.815 933.292 91.094 -6.80026 116.985 -799.445 404.837
6 2 -20.7347 -60.4859 -17.765 -376.643 -487.709 -524.714 -98.5105 -114.67 109.802 -262.784 350.065
2497 1 -19.5778 -60.6614 -18.9108 800.783 755.021 1090.6 18.4174 -57.6483 -305.323 -797.922 624.502
3 1 -22.2278 -60.5273 -17.2772 805.342 805.864 833.516 56.0876 115.861 -157.61 -806.653 353.569
107 2 -23.82 -59.637 -20.7479 -539.443 -705.231 -585.86 -25.7965 -83.8569 12.2592 -263.776 213.279
2603 2 -19.6968 -59.2916 -19.8459 -517.215 -127.795 -433.847 -165.591 110.291 -144.764 -259.093 554.758
12 2 -22.5906 -59.2267 -16.4672 -587.074 -547.231 -371.843 65.2772 61.2837 177.119 -259.202 396.863
98 1 -22.4234 -58.4009 -15.0653 949.269 626.753 833.111 118.027 149.979 -89.6652 -810.287 461.993
2596 1 -19.7694 -57.8667 -20.6047 814.598 918.518 810.133 -91.8559 -46.1787 -80.2725 -814.824 249.648
103 2 -24.4666 -57.2124 -20.2256 -604.57 -525.494 -517.99 -17.6089 126.894 -20.3089 -265.452 239.534
104 2 -22.6423 -56.926 -15.458 -575.833 -752.296 -457.007 -0.516572 -19.2002 -38.7732 -262.404 268.037
2599 2 -20.2146 -56.746 -19.5052 -568.182 -358.093 -298.852 40.921 -26.6138 173.148 -260.805 396.461
105 2 -23.4632 -56.2468 -17.8842 -395.739 -611.505 -386.971 70.0376 106.017 190.156 -258.436 453.251
2601 2 -18.3806 -56.397 -17.6923 -226.438 -547.511 -595.534 49.3035 34.8321 94.4267 -260.948 398.113
2593 1 -19.802 -55.919 -18.1882 652.848 836.585 858.094 37.5217 154.308 27.7236 -812.525 340.788
97 1 -24.5705 -56.1931 -19.0263 954.828 895.542 789.355 138.355 -32.982 -67.601 -822.01 309.007
102 2 -20.9449 -55.9332 -17.1324 -588.5 -549.815 -669.947 27.893 63.6442 35.144 -263.664 171.674
99 1 -22.4554 -55.8935 -16.6674 854.035 726.865 933.412 8.98743 142.393 -58.2964 -813.046 322.229
2597 2 -20.923 -58.6461 -14.5249 -63.5298 -450.217 -446.591 -101.526 145.554 123.645 -260.793 537.106
2602 2 -18.2395 -59.0641 -14.8175 -274.175 -594.781 -505.805 2.70192 -103.808 -18.6156 -262.446 339.954
27462 2 -25.6354 -60.4939 -18.8941 -388.064 -440.553 -500.501 106.287 -204.774 -113.125 -266.151 455.604
5130 2 -10.5311 -55.4401 1.90385 -330.213 -720.818 -347.061 52.7265 -162.479 27.1763 -237.224 485.829
2505 2 -18.107 -60.8053 -18.2842 -223.368 -421.224 -415.679 -72.0247 180.713 43.1158 -271.26 396.475
4999 2 -13.4637 -61.9094 -19.9004 -438.477 -314.684 -607.516 95.6733 -38.9438 123.834 -273.347 377.941
2499 1 -16.6804 -61.0625 -17.5489 806.159 721.509 921.637 15.0514 204.806 -112.04 -799.491 440.965
2502 2 -15.509 -60.8489 -18.58 -373.741 -450.53 -716.455 7.16958 -122.645 41.5324 -265.831 384.041
4995 1 -11.9906 -60.8822 -17.0192 739.041 730.242 916.038 -116.696 -105.69 -2.37741 -807.01 327.635
4993 1 -14.0583 -60.5685 -19.2297 963.274 554.012 968.134 -121.822 -10.9769 -53.914 -794.167 472.347
5001 2 -13.0461 -60.2517 -18.0247 -453.917 -566.586 -635.315 -15.7408 125.289 -78.0576 -259.444 302.12
2508 2 -16.3637 -60.0581 -16.3354 -520.712 -391.468 -465.989 55.0153 99.0405 146.795 -265.804 340.263
5004 2 -12.2168 -60.0376 -15.65 -588.575 -304.063 -596.859 -62.8761 -117.307 233.797 -251.518 548.177
5099 2 -14.1556 -59.5002 -20.3985 -577.07 -244.87 -363.25 97.0266 -38.7026 -133.107 -268.435 413.441
2594 1 -16.72 -58.8868 -15.3147 902.911 1000.2 772.011 -9.5865 -49.369 -220.517 -806.991 439.095
5090 1 -12.0864 -58.6417 -14.8735 861.357 812.459 981.58 -6.12103 16.168 -249.05 -816.951 457.927
2600 2 -16.6009 -57.4484 -16.1198 -526.368 -190.887 -403.567 35.4677 -26.0369 -126.682 -260.866 374.676
5096 2 -12.3811 -57.397 -15.8446 -566.684 -234.917 -526.267 33.1235 -18.0527 93.1639 -262.843 358.611
5095 2 -13.786 -56.8782 -20.0305 -602.242 -214.563 -490.6 -27.5606 34.9126 169.007 -259.735 459.459
2598 2 -15.7594 -56.2876 -18.4162 -310.83 -467.901 -449.26 101.875 -267.36 -103.291 -254.998 547.429
2595 1 -16.8362 -56.2885 -17.1845 903.618 782.786 1232.51 40.2982 11.721 5.19273 -816.124 409.731
5097 2 -13.3892 -55.8893 -17.6121 -605.144 -648.794 -457.824 10.0503 7.60408 -23.4201 -254.066 179.335
5091 1 -12.2602 -55.9522 -16.5165 919.774 752.814 599.196 -62.6029 -93.597 -57.0161 -816.92 353.431
5094 2 -10.8301 -55.8681 -17.2712 -389.314 -528.265 -417.056 101.165 -155.3 -82.4148 -256.283 373.706
5089 1 -14.31 -55.8042 -18.929 986.892 879.554 867.453 -102.802 -16.8157 -18.3386 -814.206 215.706
5093 2 -15.742 -58.829 -14.0566 -413.025 -609.264 -473.753 66.1112 33.5255 81.8256 -261.655 258.555
7589 2 -10.5379 -58.6301 -14.4396 -273.475 -633.807 -628.141 -139.971 -25.2694 61.5094 -251.879 447.069
4906 2 -18.4106 -69.9715 -13.993 63.2646 -512.565 -915.794 -123.502 0.627376 -59.0101 -273.034 884.63
10 2 -23.4856 -62.471 -13.9447 -366.539 -638.441 -522.738 -1.65312 -239.685 10.3924 -252.255 478.055
4913 2 -21.0329 -69.2094 -7.44883 -23.5847 -754.444 -126.535 54.9555 321.983 -10.631 -226.58 888.779
2422 2 -23.6215 -68.0926 -7.93681 374.637 -354.892 -627.182 -47.0042 -236.211 -3.25039 -256.159 989.466
2414 1 -22.0191 -68.1262 -8.22939 1021.8 1196.59 767.829 -110.316 26.494 79.0779 -810.565 443.641
2328 2 -21.7187 -67.7676 -9.74149 -601.668 -480.628 -320.171 43.5544 -169.888 -272.618 -255.046 612.419
4915 2 -19.2579 -67.6135 -13.7247 -492.162 -355.836 -298.826 94.9657 -60.2221 363.288 -275.051 680.791
2419 2 -24.8514 -67.0294 -13.5573 -381.893 -348.506 4.50733 65.4383 118.576 277.3 -275.06 650.563
2421 2 -23.1278 -66.4068 -11.5349 -416.054 -641.173 -356.973 31.3921 142.247 57.3365 -256.47 375.487
2418 2 -20.5386 -66.3924 -11.768 -500.956 -513.894 -270.63 11.8755 -292.263 43.6147 -256.095 564.429
2415 1 -21.7332 -66.4637 -10.703 973.108 1225.6 747.45 -3.04163 181.925 68.1998 -822.216 533.784
2413 1 -24.5007 -66.0861 -12.228 807.19 1049.92 1001.22 112.689 -29.7275 -32.6232 -819.515 305.629
4909 1 -19.2065 -66.3641 -12.7016 952.63 778.135 957.388 3.51592 79.5994 -177.339 -811.147 380.387
2424 2 -21.7373 -65.2246 -9.62972 -584.138 -443.76 -216.468 9.54392 -82.3768 307.92 -244.656 639.022
2519 2 -19.2335 -65.0281 -13.6029 -512.021 -427.447 -552.752 -77.2876 20.8599 -29.1403 -261.15 184.471
23 2 -24.4822 -64.5623 -12.7578 -515.92 -195.27 -596.462 -85.3189 -30.1964 13.6439 -253.178 400.326
22 2 -23.3408 -64.5143 -7.70994 -558.282 -550.609 -527.983 70.2421 -112.897 -4.70131 -244.229 232.056
14 1 -21.9138 -64.1995 -8.37059 1151 867.215 958.391 57.2191 276.233 -53.5449 -849.126 557.056
16 1 -24.8289 -63.0918 -13.3465 933.181 978.299 867.219 -87.8461 170.178 -158.409 -830.87 441.22
20 2 -21.857 -62.773 -9.02866 -632.9 -433.561 -527.042 25.5958 -183.036 -68.8815 -246.711 382.814
2428 1 -25.151 -68.2364 -7.22788 957.613 1090.56 539.772 -87.0117 -310.572 -79.6521 -809.52 760.875
4918 2 -18.4806 -68.2574 -7.27548 -52.7734 -374.988 -578.535 -13.2487 -261.5 -17.2506 -267.557 646.069
2513 2 -20.7632 -64.222 -7.20585 -504.212 -774.929 -174.998 -46.9792 124.447 68.998 -238.267 581.513
2515 2 -19.1055 -62.4867 -12.994 -638.918 -340.965 -488.92 -16.273 -78.1521 178.811 -254.828 426.169
7408 1 -14.3637 -68.8539 -14.1379 644.906 834.223 1294.42 -80.9737 125.281 -333.337 -753.359 857.229
4917 2 -18.0471 -66.3915 -11.607 -687.521 -534.171 -120.561 13.7136 120.982 93.4671 -255.756 573.323
7409 2 -15.8965 -69.3106 -7.51948 96.6475 -794.432 -428.477 -86.2757 140.906 -52.9906 -228.664 831.967
7414 2 -13.2656 -68.3459 -7.71574 42.1764 -401.505 -794.458 160.702 -40.0757 15.2087 -256.13 780.127
7406 1 -11.6936 -68.0638 -7.90466 500.459 1268.21 1001 -19.4987 -210.096 -76.5824 -814.108 779.002
4910 1 -17.0384 -68.1857 -7.93511 708.776 1163.5 1130.02 44.8992 148.027 86.2166 -806.38 535.495
7411 2 -14.2483 -68.0676 -12.7499 -474.477 -210.518 -366.469 19.9503 19.3361 381.283 -278.578 700.911
5008 1 -14.528 -64.0244 -13.8506 732.417 863.404 911.463 -53.9263 -15.3861 13.681 -812.265 189.099
7320 2 -11.4487 -67.6927 -9.44605 -583.862 -564.375 -230.442 -6.67319 -103.599 -236.128 -248.392 563.914
4824 2 -17.1763 -67.8476 -9.54165 -594.328 -285.826 -91.2717 -55.3361 -95.882 -221.221 -250.406 613.7
7405 1 -14.2048 -66.6536 -11.9996 1040.96 1002.81 973.236 42.489 -1.10739 -313.277 -806.075 550.731
7413 2 -12.8418 -66.3677 -11.1657 -300.401 -539.109 -401.431 89.1155 189.532 216.589 -257.018 561.601
7407 1 -11.4242 -66.3897 -10.4165 914.934 1114.04 753.813 -1.33089 -38.0903 -251.753 -831.233 540.535
4914 2 -15.564 -66.4447 -11.1006 -210.203 -573.19 -353.147 -116.888 -323.05 127.127 -250.366 709.127
4911 1 -17.0114 -66.4336 -10.3551 1072.1 1135.15 623.819 54.9207 150.738 -118.793 -824.567 593.923
5015 2 -14.3171 -65.4348 -13.1306 -506.588 -110.571 -511.948 -107.702 101.953 -121.267 -258.95 518.729
4920 2 -17.1696 -65.2241 -9.37902 -635.386 -341.538 -388.859 128.56 -68.7269 166.084 -257.491 470.304
7416 2 -11.1728 -65.1875 -9.41184 -587.259 -539.415 -506.733 77.9096 190.953 312.842 -243.198 652.787
5014 2 -13.0294 -64.5496 -7.70944 43.2622 -515.151 -443.898 78.654 -270.737 62.3257 -229.752 726.101
2510 1 -17.0922 -64.2118 -8.08478 1167.53 997.842 976.819 -210.831 167.062 -183.69 -840.859 592.543
5009 2 -15.6678 -64.2698 -7.36563 -383.064 -733.771 -388.763 31.6659 173.667 107.76 -241.34 499.353
5006 1 -11.438 -64.1394 -8.20268 1194.12 1308.64 1209.4 147.205 -97.8354 -189.825 -845.231 461.976
5012 2 -11.4692 -62.6591 -8.96525 -503.915 -160.281 -463.11 -23.6576 -24.2494 -239.768 -243.624 530.694
5011 2 -14.5646 -62.8359 -12.6829 -509.62 -35.7518 -316.211 -70.3055 -188.491 384.067 -253.835 856.881
2516 2 -17.4499 -62.7084 -8.60699 -528.356 -146.248 -414.862 23.8762 -49.0425 -138.704 -247.779 426.805
4916 2 -15.855 -67.1816 -7.40508 83.4407 -985.264 -585.448 -77.3135 -32.7321 5.04006 -223.709 946.53
9905 2 -10.705 -69.0282 -7.12351 -165.848 -748.426 -442.02 152.865 252.769 147.706 -228.544 762.894
7412 2 -10.8198 -66.8602 -7.15117 7.43567 -812.959 -580.981 134.234 218.493 138.857 -232.147 889.756
7420 1 -14.6956 -68.3437 -7.00022 630.881 1219.62 905.345 -127.446 -2.47691 -138.698 -826.712 605.649
19 2 -25.3956 -62.0184 -12.3041 -708.222 -293.126 -458.49 -32.0197 -6.5268 227.412 -244.685 537.923
106 2 -23.5404 -58.9391 -14.0641 -409.748 -515.636 -486.55 -5.48305 -124.337 131.106 -257.003 327.13
18 2 -21.0201 -61.71 -11.3321 -294.858 -556.471 -381.466 76.7532 -239.426 8.6846 -244.846 493.111
2517 2 -18.4793 -61.4224 -10.6828 -358.384 -546.004 -377.886 -40.2818 136.864 -27.4368 -254.136 308.617
21 2 -23.5088 -61.5693 -10.5981 -262.791 -491.249 -514.937 -47.9658 107.587 117.314 -244.472 375.606
15 1 -21.9796 -61.5295 -10.0526 950.269 813.629 1036.78 75.6511 224.362 -121.527 -834.996 500.467
2509 1 -19.4979 -61.3483 -11.8971 1156.3 1002.48 812.902 -47.4224 32.7088 -167.515 -816.192 427.669
13 1 -24.9642 -61.0052 -11.1056 952.606 1018.29 824.701 5.72418 249.047 -104.909 -835.215 498.261
2615 2 -19.5699 -59.9506 -12.7116 -523.598 -321.678 -348.123 -15.2019 7.3313 -94.6775 -264.672 252.74
24 2 -21.6186 -60.0937 -9.50392 -521.716 -352.83 -643.396 10.9133 -87.0565 -20.4689 -255.805 297.034
119 2 -24.718 -59.5958 -11.8487 -519.872 -671.598 -570.229 67.4196 -62.1497 -31.2348 -252.953 214.632
112 1 -24.8122 -58.6935 -13.0965 905.517 812.059 737.173 -172.772 57.6025 139.203 -828.903 423.057
2608 1 -19.4305 -58.7915 -13.7932 928.118 819.196 1010.51 158.953 113.191 -119.671 -812.307 429.913
124 1 -24.5705 -58.6295 -7.56462 827.741 1122.28 1036.32 9.7922 229.172 3.44484 -839.338 476.139
110 1 -21.8802 -58.5653 -9.06557 1105.39 792.406 1002.13 -108.402 212.533 3.51302 -817.347 497.096
2609 2 -20.9853 -58.3952 -7.69325 -333.083 -598.84 -69.934 -47.2518 253.034 -95.6794 -249.141 660.34
118 2 -23.4556 -58.4368 -8.70675 -307.571 -547.407 -426.815 99.1576 -205.509 24.1349 -253.557 448.427
2614 2 -18.4339 -58.3032 -7.5197 -492.378 -651.327 -348.866 1.3746 -181.078 134.041 -248.399 470.048
116 2 -21.5186 -57.5326 -10.2289 -578.457 -632.269 -351.04 -2.76053 -5.24812 -38.7373 -264.731 267.319
115 2 -24.9869 -57.1792 -12.6464 -428.454 -336.192 -647.696 20.9952 -25.5946 81.7055 -250.673 316.421
2611 2 -19.0548 -57.3497 -13.1776 -465.309 -142.025 -551.347 -56.9436 -1.055 171.988 -254.429 488.058
111 1 -21.7346 -56.0745 -10.725 1058.02 779.82 755.981 -38.1176 171.513 56.426 -813.988 432.155
2605 1 -19.2298 -55.8159 -12.5652 967.188 855.787 828.008 -35.7414 -97.5413 112.815 -813.454 294.675
114 2 -20.6889 -55.7227 -11.8475 -302.972 -538.177 -501.101 59.0661 -152.682 49.6876 -263.341 368.488
109 1 -24.7306 -55.7279 -11.9214 683.067 1096.34 1062.96 198.035 231.492 -165.677 -826.332 720.333
117 2 -23.3022 -55.7968 -11.1464 -102.932 -492.009 -408.826 -125.964 142.308 69.6447 -256.14 498.841
2613 2 -18.1236 -55.6938 -11.4205 -465.796 -664.065 -595.977 -61.6752 15.7815 48.5812 -255.029 222.903
131 2 -24.6239 -60.1725 -7.11324 -535.44 -278.959 -479.148 -35.855 -106.759 -156.293 -251.831 407.242
5034 2 -10.4538 -61.6904 3.20366 -468.849 -775.848 -221.734 -24.104 -166.266 -3.07393 -238.077 562.034
5022 2 -10.3853 -60.5456 -3.68496 -277.296 -680.162 -535.337 -129.513 -43.9129 101.166 -239.661 460.152
2514 2 -15.9291 -61.7824 -10.5726 -582.303 -495.56 -317.885 21.9403 -174.44 85.163 -259.911 411.09
5013 2 -13.3369 -61.8564 -10.6497 -304.224 -563.496 -607.021 27.5462 108.79 74.5553 -249.956 367.231
5010 2 -10.8178 -61.8754 -11.4402 -508.131 -458.209 -367.624 -0.370238 -186.29 68.7263 -254.03 365.38
5005 1 -14.6473 -61.6786 -11.5314 749.542 1144.5 1043.3 -32.0017 -17.7503 -214.454 -820.285 517.93
5007 1 -11.8108 -61.6352 -10.1482 920.616 942.299 1208.2 2.48222 -30.8578 -44.8904 -825.602 293.019
2511 1 -17.1864 -61.4728 -9.65021 1046.94 719.633 955.131 14.63 89.7241 -212.553 -824.113 495.821
7601 2 -10.736 -58.2964 -7.96047 -404.036 -625.677 -176.25 80.0028 222.279 68.9778 -251.388 577.233
5111 2 -14.5868 -60.1346 -12.1417 -503.603 26.9427 -524.669 40.114 18.4105 35.0063 -258.868 550.109
5016 2 -11.679 -60.0688 -9.67018 -402.59 -46.6922 -499.197 -49.8088 -38.5042 200.475 -263.989 550.308
2520 2 -17.1448 -60.0681 -8.98509 -573.256 -566.346 -622.313 -115.648 -125.009 -23.1548 -258.473 302.336
5098 2 -13.1367 -58.6592 -13.6586 -247.561 -581.399 -464.686 70.9605 -91.0537 47.5708 -256.707 364.519
5104 1 -14.604 -58.7393 -12.9444 967.932 658.725 771.799 -130.797 -22.2281 -266.306 -813.557 582.231
2606 1 -17.2168 -58.5424 -8.55514 924.316 777.775 961.469 -42.1519 112.034 -93.2124 -825.075 312.009
5116 1 -14.2695 -58.508 -7.39538 876.02 1339.68 951.67 40.6907 -7.59999 -96.1696 -825.269 467.457
5102 1 -11.7422 -58.5247 -9.24631 1038.71 1096.32 970.225 -142.397 -52.1341 -5.80061 -813.892 284.674
5110 2 -13.2447 -58.0671 -8.57778 -116.744 -457.836 -224.824 -79.74 -320.506 98.8755 -249.875 669.131
5105 2 -15.7786 -58.2821 -7.81597 -288.006 -630.108 -473.297 -34.5901 97.1413 39.7134 -251.075 352.999
5108 2 -11.44 -57.4138 -10.3393 -452.816 -236.109 -532.897 -9.89452 92.2126 -145.445 -260.493 399.993
5107 2 -14.799 -57.3772 -12.2336 -570.54 -390.876 -698.47 47.5434 -2.05325 -160.127 -267.875 394.139
2612 2 -17.3083 -57.5245 -9.76331 -511.364 -229.337 -521.456 89.9184 -106.682 -38.6422 -258.736 381.269
5103 1 -11.5952 -55.9067 -10.9673 709.957 1098.02 941.533 -71.9452 48.7511 -173.608 -816.088 476.9
5101 1 -14.6286 -55.8217 -11.9041 806.715 925.679 1120.24 -8.95461 158.347 -197.379 -803.761 517.192
5109 2 -13.0903 -55.5869 -11.423 -227.319 -505.463 -511.131 -26.6346 109.234 75.131 -262.098 365.83
2607 1 -17.1203 -55.959 -10.234 710.319 1144.48 700.476 85.2649 110.709 -107.68 -819.978 535.002
2610 2 -15.6834 -55.5539 -10.7151 -552.92 -572.457 -524.136 70.9446 -116.372 8.44204 -254.859 240.236
5040 2 -11.224 -59.559 4.45303 -514.758 -438.757 -600.478 -1.13804 17.9483 72.4732 -239.974 190.699
7332 2 -12.2761 -69.8121 -1.94367 -482.062 -0.793841 -214.926 34.0875 -51.6228 27.1202 -121.776 433.709
2420 2 -21.0747 -67.0903 -7.3624 -8.53529 -1032.27 -434.861 -15.9682 150.22 0.68223 -228.513 928.337
2518 2 -18.2516 -64.5857 -7.01464 -472.903 -514 -260.101 85.8863 -368.773 155.396 -240.283 747.176
4924 1 -19.9785 -68.1455 -6.68551 1053.09 1209.78 759.087 -98.4607 113.997 -19.0617 -811.63 475.619
2431 2 -24.7626 -68.0698 -5.75329 -857.856 -330.667 -608.75 136.472 -9.39037 299.53 -241.029 730.717
4927 2 -19.8921 -67.823 -5.14395 -680.866 -379.778 -146.375 119.51 -70.2544 334.486 -247.22 780.195
2432 2 -23.011 -67.1664 -1.02667 -519.243 -373.057 102.342 208.958 -431.565 -195.229 -266.468 1058.75
2433 2 -23.5017 -66.8634 -3.65327 -543.411 -601.464 -20.2901 14.6112 222.811 125.308 -240.188 709.983
2425 1 -24.7266 -66.8312 -4.67365 1160.95 1459.53 602.387 -13.7554 152.347 -271.734 -839.276 927.165
4929 2 -18.4293 -66.7308 -3.09272 -214.256 -589.069 -235.246 69.7452 292.571 13.2634 -234.095 636.374
2430 2 -20.9874 -66.5682 -3.01435 -505.886 -615.27 -269.904 63.7836 -424.528 10.5018 -242.051 804.16
4921 1 -19.748 -66.6203 -4.00804 1073.56 1163.05 768.535 -100.184 306.113 -52.5973 -850.722 669.231
2427 1 -22.4894 -66.3865 -2.39366 1406.95 935.942 979.725 39.4406 210.943 59.5169 -828.812 593.236
35 2 -24.5909 -65.4012 -5.56942 -665.535 -69.6811 -288.334 77.1445 -206.691 -177.35 -245.444 716.199
2531 2 -19.7245 -65.2852 -4.89038 -597.628 -302.962 -292.23 14.4668 -78.824 -102.295 -247.628 375.188
2436 2 -22.6685 -64.8163 -2.21709 -679.659 -212.635 -515.934 40.0006 -62.3473 -45.3322 -256.4 437.127
28 1 -24.5291 -64.2701 -6.69097 944.212 934.887 871.544 57.786 135.093 0.0613598 -852.957 263.548
2524 1 -19.5812 -64.2035 -6.12384 1196.46 894.442 973.078 -98.0492 118.496 -249.299 -845.415 575.384
26 1 -22.6626 -63.2093 -2.05111 1205.02 937.354 934.62 -278.553 228.609 224.751 -820.856 783.253
2536 1 -19.7766 -63.0725 -0.860346 793.258 1131.07 867.342 -194.678 21.6108 -51.5831 -842.552 466.539
2530 2 -18.5355 -63.1502 -1.84711 -124.639 -684.532 -496.841 79.6174 -58.4925 32.404 -250.927 525.407
2525 2 -21.2498 -62.7717 -1.3996 -198.401 -654.606 -635.151 176.751 -113.199 83.638 -252.071 593.95
31 2 -24.3195 -62.7347 -6.17029 -613.475 -156.607 -581.223 29.2818 -86.7018 -34.8685 -245.243 473.08
34 2 -24.023 -62.7158 -1.24662 -278.048 -534.792 -476.809 -59.6668 -203.272 15.8748 -245.292 435.647
2527 2 -19.462 -62.7085 -5.63134 -615.962 -443.223 -515.078 -12.2876 -94.0502 37.0158 -251.418 231.71
2543 2 -19.982 -64.5806 -0.216696 -651.91 -442.087 -678.423 210.478 -215.998 -197.658 -238.067 663.601
40 1 -25.0205 -63.3859 -0.185132 947.199 1020.71 802.038 13.766 100.487 -22.7053 -834.854 263.732
7505 2 -10.5403 -63.8732 -6.87968 -309.872 -706.194 -195.414 -9.10837 296.423 191.385 -237.033 767.637
7418 1 -12.4541 -68.8802 -0.662646 1455.67 938.016 1448.5 -113.238 -110.511 486.715 -929.797 1024.74
7423 2 -14.3938 -67.9226 -5.54468 -755.652 -510.846 -701.326 197.971 -61.6531 349.952 -226.607 738.893
4928 2 -16.2442 -67.5206 -1.38256 -366.069 -471.53 -292.137 -135.026 179.957 -237.18 -233.769 587.364
7424 2 -12.2553 -67.3534 -1.10858 -629.284 -728.32 -616.723 26.1547 -1.85165 -92.5045 -221.517 197.342
4926 2 -15.85 -66.6988 -3.814 -336.051 -608.502 -212.294 104.978 -307.207 117.392 -228.846 693.394
4923 1 -16.8693 -66.5239 -2.47924 1376.46 1004.96 1100.21 -218.547 65.2193 21.8725 -853.362 518.828
7425 2 -13.2341 -66.6477 -3.49469 -314.122 -860.433 -265.791 -33.0319 101.01 77.4818 -226.121 615.701
7417 1 -14.4253 -66.6303 -4.55546 1200.84 1230.01 623.438 -41.5353 162.861 -350.144 -873.636 896.457
7419 1 -12.1244 -66.3797 -2.30371 1064.31 1277.81 922.623 -69.6023 130.97 69.0768 -878.963 419.783
7422 2 -10.6397 -66.2879 -2.99784 -410.895 -746.298 -326.237 176.034 -209.003 74.9044 -232.441 623.618
5027 2 -14.199 -65.3842 -5.52692 -651.282 -370.109 -498.505 14.7201 -178.993 -14.7941 -237.525 396.062
4932 2 -16.8628 -65.0126 -1.98114 -707.086 -454.649 -524.46 86.9255 -92.7402 15.7216 -244.056 316.523
7428 2 -12.3705 -64.8014 -1.92643 -611.069 -436.897 -643.726 40.3308 -28.4478 -3.36191 -222.78 210.788
5020 1 -14.2239 -64.212 -6.63579 1078.99 1212.05 1027.52 21.3416 61.9922 -110.788 -857.598 277.341
2522 1 -16.9213 -63.4311 -1.94092 1013.49 785.112 831.878 -58.9301 -28.2427 -61.1411 -836.965 260.173
5018 1 -12.1572 -63.2608 -1.61202 634.918 1055.38 1042.69 -74.6377 230.488 -113.405 -867.947 621.515
7517 2 -10.7703 -63.2357 -0.782116 -180.487 -676.349 -508.35 -107.705 85.6007 -33.1995 -236.008 500.887
5021 2 -16.0273 -62.8823 -0.79961 -283.271 -609.962 -575.911 -18.0663 192.348 -14.9477 -250.573 457.609
2528 2 -16.3304 -62.6866 -3.24545 -538.55 -418.195 -541.128 101.298 -166.343 -15.6784 -247.931 359.629
5023 2 -13.936 -62.6518 -6.22924 -559.021 -65.9384 -489.45 121.51 -20.2312 92.5929 -240.793 533.768
5026 2 -13.4098 -62.7201 -0.887609 -508.045 -820.591 -837.492 98.7847 112.216 69.9511 -236.075 430.099
7426 2 -14.0843 -68.8494 -0.142981 13.9867 -556.877 -604.914 -173.473 17.2044 -111.646 -202.593 695.828
7432 1 -15.4674 -68.0231 -0.0227189 1333.32 1280.67 1022.22 -68.265 183.108 44.3567 -884.832 451.273
32 2 -22.7131 -62.351 -3.41438 -764.283 -389.599 -557.226 15.5467 -35.0184 -92.2017 -248.116 368.222
25 1 -24.3323 -61.1593 -5.86962 1088.66 1154.85 821.131 64.9647 149.054 11.1572 -834.054 416.346
2521 1 -19.3514 -61.2618 -4.97758 942.335 1001.46 946.302 -28.6414 -31.5701 -65.3346 -842.078 146.744
27 1 -22.1906 -60.894 -3.72192 1219.41 1008.31 979.976 -169.806 184.115 101.816 -824.047 520.235
30 2 -20.5702 -61.0221 -3.93072 -87.709 -595.514 -514.847 -144.168 -158.061 102.718 -247.429 626.391
33 2 -22.9402 -60.5801 -5.18924 -274.605 -605.126 -24.7373 123.926 273.263 157.127 -242.791 773.577
2620 1 -19.7364 -58.5572 -6.63814 1136.2 1136.63 704.457 -110.403 170.499 -74.9621 -838.134 572.035
2627 2 -19.5554 -60.0129 -6.0053 -715.394 -274.778 -479.621 -41.9282 -11.0887 -49.0239 -241.757 398.37
36 2 -22.5214 -59.8183 -2.53434 -704.292 -384.215 -266.106 19.0319 -100.757 176.763 -252.841 528.66
2621 2 -20.7493 -59.0273 -0.868381 -490.041 -571.626 -599.55 112.492 -49.4895 43.3464 -247.305 246.295
122 1 -22.3055 -58.9224 -1.25521 1013.92 983.764 660.207 -119.769 138.687 -140.911 -845.051 525.031
127 2 -24.2425 -57.6633 -6.28929 -641.275 -174.005 -191.056 43.4632 -73.5166 346.542 -244.634 769.948
2623 2 -19.8857 -57.3996 -5.49191 -600.921 -235.755 -372.836 24.2939 -65.8795 189.559 -252.874 473.993
128 2 -22.6365 -57.3819 -1.63876 -619.858 -327.564 -582.247 -8.41154 -40.6391 -61.3614 -239.218 303.841
126 2 -20.9203 -56.4102 -3.29934 -547.826 -698.21 -430.708 20.4746 -46.0466 52.6826 -248.526 264.366
2625 2 -18.3239 -56.4279 -3.66372 -780.557 -636.81 -463.89 -10.1225 60.242 3.41658 -247.633 294.366
121 1 -24.4495 -56.4431 -5.17957 1125.73 1134.14 868.969 39.8382 68.4846 123.305 -840.464 364.144
129 2 -23.5109 -56.5066 -3.87822 -300.602 -713.065 -357.309 63.4523 112.393 207.428 -243.354 573.591
2617 1 -19.746 -56.2667 -4.38096 840.433 1212.1 774.568 -87.0032 70.8486 -71.9112 -835.324 469.295
123 1 -22.3795 -56.2304 -2.74104 1026.06 1171.84 813.214 34.7588 148.976 -50.069 -841.278 418.7
227 2 -24.1365 -55.0259 -5.78573 -544.547 -336.642 -573.789 47.4013 -68.4895 -3.90168 -249.592 266.492
2626 2 -18.163 -59.2264 -1.0471 -335.906 -476.764 -450.136 -8.41691 -204.386 116.754 -247.834 428.05
2632 1 -19.3912 -58.7889 -0.109543 712.078 1053.96 963.894 -143.711 27.2086 10.4659 -839.627 398.387
130 2 -23.3412 -59.2181 -0.103142 -311.779 -654.978 -511.543 -85.6011 -224.717 193.024 -241.581 611.868