ITEM: TIMESTEP
260000
ITEM: NUMBER OF ATOMS
29952
ITEM: BOX BOUNDS pp pp pp
-2.5615833775063237e+01 3.5601128117061187e+01
-7.0110204159960603e+01 8.0095498494159330e+01
-2.1035324467156940e+01 3.4903177627851115e+01
ITEM: ATOMS id type x y z v_StrAtomXX v_StrAtomYY v_StrAtomZZ v_StrAtomXY v_StrAtomXZ v_StrAtomYZ c_PEAtom v_VMS
1 1 -24.613 -65.6877 -19.5544 849.349 945.497 838.808 -16.906 10.6807 59.428 -837.477 148.875
2 1 -21.9642 -68.5263 -16.0612 1115.23 1217.83 945.792 -62.0612 -55.9387 -3.94182 -832.243 278.586
3 1 -22.0712 -65.6385 -17.6775 945.067 1071.34 1127 -86.4648 -128.786 -64.1682 -832.178 332.582
6 2 -20.6047 -65.7421 -18.4264 -260.788 -620.124 -500.38 -172.955 -210.027 217.438 -238.89 681.428
7 2 -24.6837 -67.1046 -20.381 -538.529 395.57 -462.35 -25.3291 -7.66736 190.551 -244.435 958.235
8 2 -22.0514 -67.0848 -16.8455 -570.408 314.88 -556.877 -74.3631 113.007 -134.791 -247.503 938.801
9 2 -23.1949 -65.7218 -18.7945 -625.917 -617.812 -488.265 1.31271 119.056 5.62019 -241.295 246.01
10 2 -23.0796 -68.4443 -14.88 -510.709 -673.381 -360.825 6.13876 -96.3374 -23.5266 -243.494 320.82
12 2 -22.2361 -64.2442 -16.864 -439.103 247.57 -521.682 14.8282 5.59327 116.286 -262.399 759.187
107 2 -24.6818 -64.3348 -20.3886 -534.722 101.637 -486.778 29.5778 -8.6241 -85.3979 -258.721 633.615
2497 1 -19.1626 -65.7701 -19.1259 903.612 1273.39 1143.02 -114.394 65.0374 -92.9369 -835.57 428.23
2501 2 -20.505 -68.6752 -15.3427 -451.906 -637.007 -282.758 -15.072 210.018 -20.1145 -240.383 477.913
2503 2 -18.963 -67.1912 -19.9417 -448.806 159.245 -557.289 58.9612 30.9643 109.427 -252.027 704.759
2603 2 -19.2124 -64.3093 -19.9699 -585.313 482.616 -412.779 -30.5511 43.7712 -236.254 -239.76 1077.95
2512 1 -19.4296 -68.7156 -14.1332 810.517 1174.44 1146.23 10.2324 -29.6104 58.6926 -832.114 369.118
2500 1 -19.1374 -68.6339 -20.6904 817.055 1082.99 877.557 34.4593 51.6984 64.3484 -839.766 286.874
2506 2 -18.0102 -68.8128 -14.9124 -587.267 -686.057 -467.952 -53.085 -212.289 10.0727 -242.933 423.959
11 2 -24.7287 -70.0775 -20.2342 -573.714 439.498 -453.567 33.2428 -80.0071 -249.085 -249.276 1062.05
5 2 -25.5689 -68.613 -14.5493 -477.519 -633.092 -260.106 -7.49679 260.984 58.1914 -246.09 565.65
2507 2 -18.8217 -69.9776 -19.8596 -481.086 72.2825 -570.403 -9.08322 -52.7083 -125.57 -251.445 647.692
2505 2 -18.0039 -65.7495 -17.985 -409.723 -633.268 -304.575 -60.2621 181.845 -59.6266 -244.813 453.097
2498 1 -16.5753 -68.697 -15.5192 770.222 1400.92 1069.84 -63.0731 72.8681 42.5562 -828.853 576.087
2499 1 -16.6211 -65.8423 -17.1706 972.722 1232.67 852.668 49.9264 18.4829 10.0974 -837.649 349.292
2502 2 -15.4321 -65.7042 -18.2348 -388.02 -626.985 -217.953 33.2993 -164.031 -53.2438 -247.861 468.206
2504 2 -16.5444 -67.2829 -16.427 -537.447 241.61 -441.6 -38.8317 -18.3448 -151.306 -252.676 784.64
2508 2 -16.5009 -64.3828 -16.3591 -652.896 422.344 -640.398 100.78 79.2054 76.572 -238.638 1099.88
4993 1 -14.3317 -65.7648 -19.4609 1042.6 1331.12 1045.69 -51.1011 -143.25 -19.0611 -821.117 390.955
4994 1 -11.782 -68.6449 -16.1466 1106.63 1144.6 911.293 51.0537 -165.874 4.58142 -837.42 370.732
4995 1 -11.6961 -65.7667 -17.7213 784.989 1224.67 1083.03 -87.2978 43.4832 -10.5676 -833.356 424.232
4999 2 -14.4419 -67.123 -20.3316 -558.818 334.83 -459.291 -80.5075 -85.4798 173.718 -255.158 922.751
5000 2 -11.7923 -67.2128 -16.8866 -548.366 212.838 -491.867 74.904 -15.4225 -122.721 -254.552 776.107
5001 2 -12.8497 -65.7624 -18.832 -415.592 -658.616 -433.491 45.2152 124.817 -33.3301 -245.69 333.52
5002 2 -12.9866 -68.7865 -14.999 -459.257 -583.822 -123.378 20.3195 -178.51 -29.1057 -241.909 519.179
5004 2 -11.7987 -64.3225 -16.9136 -636.313 319.984 -541.098 9.29404 -61.0074 136.547 -244.104 948.618
5099 2 -14.3825 -64.1955 -20.2476 -533.23 488.701 -377.697 95.8869 -53.6426 -298.067 -244.767 1101.06
4997 2 -15.4932 -68.4831 -14.344 -360.578 -633.151 -371.907 34.3563 177.405 3.14178 -244.089 411.491
5003 2 -14.4265 -70.049 -20.4748 -506.302 442.706 -502.9 -16.8328 15.9535 -142.318 -254.282 979.682
7493 2 -10.4521 -68.6898 -15.2509 -442.129 -643.93 -191.147 -74.5697 291.302 -51.976 -238.126 658.575
27558 2 -25.6906 -59.8806 -18.5918 -549.479 -628.636 -212.857 -34.9588 -171.397 1.51539 -239.643 487.883
101 2 -25.4652 -62.8189 -14.6823 -478.167 -556.766 -314.451 -112.85 182.779 -114.537 -247.857 472.901
98 1 -21.9661 -62.7909 -16.1346 1013.12 1201.17 1111.13 72.9265 -78.2287 -2.15245 -828.107 246.712
103 2 -24.6833 -61.3876 -20.489 -636.028 330.481 -553.44 96.1612 83.0813 55.8708 -252.355 958.619
104 2 -22.0404 -61.3103 -16.8411 -579.109 379.611 -628.664 103.737 -64.8889 -56.9922 -249.319 1011.81
106 2 -22.9299 -62.7689 -14.7893 -607.746 -592.499 -147.232 38.4189 -160.311 -46.9765 -237.745 541.693
2597 2 -20.5158 -62.7516 -15.402 -498.262 -623.637 -341.549 112.034 318.147 97.4108 -235.917 655.514
2599 2 -18.9289 -61.368 -20.0497 -538.41 380.398 -475.986 25.5367 -37.5817 174.2 -247.111 942.326
2596 1 -19.1554 -62.8335 -20.8171 955.886 1395.84 820.488 57.5426 42.5948 -35.2382 -836.248 539.035
97 1 -24.5139 -60.0066 -19.6713 1105.85 1220.56 987.569 39.7503 -50.1904 -59.4967 -836.1 252.255
99 1 -21.9372 -59.916 -17.7281 853.263 1169.15 1137.84 -104.983 96.9397 -60.4286 -836.666 403.838
102 2 -20.5579 -59.9785 -18.4982 -625.576 -598.562 -513.579 -6.40109 -192.158 72.9936 -244.768 370.31
105 2 -23.1216 -60.017 -18.8247 -398.535 -628.672 -374.267 111.879 219.576 81.1137 -238.966 510.947
108 2 -22.104 -58.4291 -16.9801 -593.973 156.598 -536.436 -42.7436 -61.5485 119.577 -249.093 763.69
2593 1 -19.1471 -59.9359 -19.2258 878.796 1176.51 1183.52 -107.028 164.8 -35.3291 -836.067 458.645
2699 2 -19.0653 -58.4928 -20.0123 -594.666 73.8043 -636.925 19.3333 -31.6197 41.6751 -252.083 697.294
203 2 -24.4245 -58.4525 -20.4245 -532.999 592.747 -476.107 23.9527 28.6445 -177.879 -241.252 1142.63
2608 1 -19.4253 -62.8512 -14.2048 1010.97 1046.01 1116 -125.576 -31.2966 44.8908 -845.743 254.696
2602 2 -17.9464 -62.9348 -14.8576 -356.821 -648.47 -475.637 33.0012 -174.966 13.74 -235.196 400.245
2601 2 -18.0256 -59.9575 -18.021 -279.611 -605.123 -211.166 -14.6314 321.037 -47.8005 -234.527 670.532
2594 1 -16.5284 -62.8848 -15.649 932.142 1248.81 1074.09 -3.5768 -83.8988 -85.1106 -840.204 344.038
2600 2 -16.4479 -61.4485 -16.4745 -540.244 411.031 -475.627 17.0212 -6.37827 -142.257 -249.658 953.589
5090 1 -11.6701 -62.9217 -16.0462 945.434 1225.43 784.221 -22.4271 -43.6337 -25.3732 -841.831 398.349
5095 2 -14.4231 -61.3651 -20.317 -563.174 266.492 -474.517 -20.9785 -2.13072 213.28 -249.391 872.037
5096 2 -11.6775 -61.4237 -16.7328 -576.818 344.109 -437.182 23.7317 -6.87351 -139.695 -248.09 894.084
5098 2 -12.8811 -62.8845 -15.0112 -642.283 -678.506 -481.083 -31.2164 22.2768 75.367 -241.867 233.644
5093 2 -15.3504 -62.8559 -14.5699 -877.834 -680.886 -516.754 3.94944 22.109 47.0437 -241.419 325.892
2595 1 -16.5481 -59.9682 -17.2437 1093.76 1251.27 832.348 -29.1997 138.384 -67.7035 -834.9 456.157
2598 2 -15.4714 -59.9535 -18.3774 -603.098 -690.533 -372.22 16.2658 -40.3056 -0.141033 -247.095 294.625
2604 2 -16.5 -58.5406 -16.4521 -599.526 225.972 -532.215 -83.1097 -37.1777 153.548 -250.897 852.063
5089 1 -14.2933 -59.9746 -19.4843 1119.78 1217.76 927.213 -11.0989 55.5077 -86.2711 -831.506 312.232
5091 1 -11.6161 -59.9747 -17.5833 1194.99 1179.7 1123.59 46.7927 34.6121 -97.3526 -829.413 206.966
5097 2 -12.8699 -60.0534 -18.6556 -151.743 -588.125 -264.818 -20.9901 312.165 9.23779 -243.223 669.172
5100 2 -11.7818 -58.5536 -16.7899 -590.303 287.076 -416.443 -81.6982 -52.08 190.507 -253.408 885.731
5195 2 -14.3334 -58.5067 -20.2774 -529.105 321.376 -414.112 -9.13243 44.9382 -226.937 -250.483 894.176
2692 1 -19.0915 -57.0811 -20.736 1073 1090.54 967.161 81.1999 56.1955 92.8609 -840.217 261.703
193 1 -24.4205 -54.1289 -19.5539 1062.83 1180.24 906.399 -29.6709 -117.329 58.5635 -830.554 332.944
194 1 -22.0084 -57.08 -16.1198 1134.71 1000.52 835.796 -95.826 -74.735 -8.93776 -834.807 334.351
195 1 -21.9121 -54.1999 -17.6756 786.852 1149.2 1180.06 54.6946 23.6712 -46.4052 -824.776 400.681
198 2 -20.4018 -54.208 -18.1886 -619.778 -611.766 -571.158 49.5968 -72.883 -67.1848 -250.297 197.219
199 2 -24.5646 -55.5631 -20.384 -604.192 195.124 -516.177 14.7304 4.47762 118.796 -252.998 786.988
200 2 -22.1992 -55.6452 -16.8419 -514.501 172.734 -416.364 19.8762 32.5479 -202.098 -251.364 735.781
201 2 -22.9163 -54.1505 -18.9444 -257.347 -629.044 -397.839 16.8798 150.85 -14.7434 -247.684 418.868
202 2 -23.1579 -57.1444 -14.9665 -460.152 -636.86 -341.723 29.7912 -68.528 40.4741 -249.858 296.384
204 2 -22.0844 -52.8062 -16.8481 -573.587 245.894 -566.57 -22.2419 0.710261 108.094 -252.374 838.085
299 2 -24.5478 -52.676 -20.2803 -673.43 337.328 -594.26 9.93981 51.383 -86.3815 -244.063 989.182
2689 1 -19.1146 -54.1999 -19.0569 738.885 1267.44 1196.28 73.8025 176.573 -1.1985 -833.244 597.245
2693 2 -20.5246 -57.1293 -15.457 -370.69 -695.401 -430.821 39.8283 91.3819 -25.6425 -240.629 348.298
2695 2 -19.051 -55.6374 -19.8915 -479.219 351.522 -461.008 -27.9471 1.84634 236.273 -249.203 919.327
2795 2 -19.0042 -52.7641 -19.9026 -470.3 387.073 -467.942 -32.275 -19.8672 -250.616 -247.437 962.188
2704 1 -19.5222 -57.0842 -14.1971 695.021 1084.52 967.13 -98.6588 1.59982 -105.651 -830.556 427.154
298 2 -23.1188 -51.3786 -14.845 -368.337 -571.159 18.8348 -5.24886 -293.892 44.3542 -240.701 731.21
2697 2 -17.8391 -54.2089 -17.9874 -499.749 -594.862 -368.04 -42.8801 280.645 -54.377 -237.24 538.139
2698 2 -18.0574 -57.2519 -14.7706 -452.724 -576.453 -419.337 -45.9903 -210.988 48.9358 -249.929 409.428
2789 2 -20.629 -51.32 -15.3151 -523.712 -690.917 -377.233 -43.8085 208.156 -26.6208 -241.975 460.191
290 1 -22.0391 -51.3345 -16.0946 1007.27 1178.5 1035.97 -9.47014 -146.59 -11.4667 -829.165 300.597
2800 1 -19.5042 -51.3016 -14.1809 961.716 1316.75 963.6 2.04404 -104.899 -71.6753 -836.045 416.918
293 2 -25.6569 -51.3306 -14.4491 -643.474 -672.984 -431.94 9.74244 64.3978 -73.5695 -250.068 284.295
2690 1 -16.6301 -57.1725 -15.5435 1012.35 1262.38 1128.75 111.397 -21.2103 -125.609 -823.018 364.514
2691 1 -16.4491 -54.2803 -17.2266 855.187 1227.16 1115.79 -91.203 -31.9504 -33.0159 -833.951 375.005
2694 2 -15.3877 -54.2903 -18.4583 -519.631 -621.914 -98.0484 51.3088 -220.764 -20.452 -246.532 621.833
2696 2 -16.3636 -55.7087 -16.3426 -389.851 338.273 -289.213 159.697 -112.929 -322.007 -253.294 944.908
2700 2 -16.3827 -52.8779 -16.3666 -505.083 330.397 -486.63 -99.3708 -85.0959 160.384 -249.101 900.815
5185 1 -14.2452 -54.2485 -19.6263 1172.4 1283.75 886.623 -73.794 -15.307 -116.802 -822.405 428.782
5186 1 -11.7293 -57.0754 -16.0215 1167.49 1062.56 962.626 -36.8268 -75.2195 114.317 -829.726 302.87
5187 1 -11.682 -54.2253 -17.6507 982.068 1467.85 949.735 -2.56588 121.726 -68.5584 -814.941 557.95
5191 2 -14.2865 -55.686 -20.3892 -579.11 203.966 -512.678 27.6513 4.56441 126.255 -256.824 784.715
5192 2 -11.8047 -55.7151 -16.8641 -593.938 328.397 -499.523 56.2323 -33.9235 -121.192 -256.651 910.788
5193 2 -12.8043 -54.2389 -18.8448 -273.795 -667.393 -150.569 -32.3204 273.428 -14.4473 -248.225 668.321
5194 2 -12.8361 -56.9923 -14.8273 -363.556 -591.683 -163.165 29.2393 -217.361 -13.4242 -245.269 531.748
5196 2 -11.8195 -52.6997 -16.9027 -566.225 390.483 -433.048 22.0184 15.0796 159.49 -256.736 940.247
5291 2 -14.3906 -52.7492 -20.3891 -620.903 346.125 -505.704 -7.26487 -26.2257 -99.2843 -251.262 932.098
5189 2 -15.3987 -57.282 -14.4649 -404.731 -660.06 -423.925 -50.2989 161.108 21.4413 -247.425 384.053
7685 2 -10.26 -57.0624 -15.2904 -477.519 -674.542 -468.863 -12.7202 143.101 -90.1227 -239.546 356.208
5290 2 -13.0339 -51.2967 -14.958 -634.487 -604.67 -109.063 -44.4432 -163.372 60.9243 -246.705 598.687
5282 1 -11.8181 -51.3162 -16.0689 1074.89 1240.77 1003.67 -31.2811 -59.3966 -85.0306 -821.459 282.152
2794 2 -18.0322 -51.447 -14.8348 -309.961 -646.89 -350.429 -51.5326 -240.044 26.5424 -238.589 533.355
2786 1 -16.5857 -51.3868 -15.6234 964.648 1239.21 1016.26 -4.28595 -108.882 89.1554 -839.141 351.202
2615 2 -19.5883 -64.2827 -13.4997 -645.32 299.03 -585.796 -33.2216 68.7645 -18.7807 -247.24 926.112
16 1 -24.1927 -68.6062 -13.7521 874.155 1307.15 953.293 56.1712 36.7991 37.0039 -829.809 420.856
13 1 -24.2096 -65.7764 -12.0645 926.665 1226.99 1117.69 -27.4862 -0.862387 -61.7408 -832.858 288.135
14 1 -21.5415 -68.6492 -8.68778 1056.56 1241.34 1005.13 90.4715 -72.5139 45.1796 -841.574 304.539
15 1 -21.6158 -65.8114 -10.2917 871.451 1426.15 979.75 -142.446 -172.459 49.2974 -838.345 645.554
18 2 -20.561 -65.8395 -11.5522 -458.752 -672.207 -121.807 53.31 -187.702 22.3223 -237.986 588.842
19 2 -24.0154 -67.2229 -12.8219 -506.672 316.078 -532.677 45.9934 74.5526 169.511 -249.28 899.006
20 2 -21.3575 -67.2686 -9.52022 -548.343 265.383 -525.921 -22.0576 41.3108 -89.9357 -249.207 821.737
21 2 -23.032 -65.742 -10.9294 -615.356 -695.578 -388.481 -64.7932 170.624 -124.95 -241.594 472.099
22 2 -22.9776 -68.5513 -7.89609 -133.863 -651.379 -377.161 42.1949 -257.046 -57.9787 -237.732 644.012
24 2 -21.5071 -64.3174 -9.50513 -615.837 415.597 -449.501 -20.0186 -90.132 198.615 -237.042 1031.44
119 2 -24.0933 -64.369 -12.9844 -494.088 251.498 -365.177 11.8484 6.40762 -239.445 -255.034 805.573
2509 1 -19.4285 -65.7701 -12.7303 1066.79 1235.96 969.524 -37.6747 -142.815 -151.256 -833.085 434.299
2515 2 -19.4438 -67.248 -13.3927 -549.527 287.696 -663.537 22.5025 52.1219 -25.4652 -255.21 906.094
28 1 -24.4617 -68.6583 -7.20115 930.403 1319.84 1078.49 48.7648 -84.4446 -7.78538 -836.228 380.298
2513 2 -20.3381 -68.6931 -7.61296 -683.006 -633.945 -366.593 -33.5005 225.031 50.4962 -238.524 499.934
17 2 -25.5677 -68.6856 -8.3599 -511.631 -697.219 -384.229 -30.4736 79.6159 53.0708 -247.388 323.373
27474 2 -25.6209 -65.8158 -11.3326 -494.369 -658.455 -429.941 47.5217 -192.383 -44.5381 -240 406.703
2424 2 -21.6087 -70.1329 -9.4529 -551.383 303.682 -414.516 -3.68467 15.597 201.114 -243.723 868.879
2517 2 -18.0212 -65.6511 -11.9406 -519.711 -661.603 -359.416 15.2777 187.274 2.67624 -242.566 417.743
2518 2 -17.9356 -68.5838 -8.05195 -712.182 -699.108 -447.58 6.03933 -2.81379 -56.604 -232.951 276.534
5008 1 -13.9861 -68.5964 -13.7458 1047.89 1204.73 939.854 -24.6114 -107.368 131.593 -836.577 376.254
2510 1 -16.8059 -68.6537 -9.15974 1044.94 1186.77 807.848 0.467861 -24.7811 -68.8303 -848.349 354.979
2511 1 -16.915 -65.6919 -10.798 772.874 1395.8 1073.36 -92.0416 12.2506 -98.9404 -834.934 588.542
2514 2 -15.483 -65.6741 -11.4221 -405.596 -607.034 -461.363 -76.9087 -197.501 82.5439 -245.715 433.196
2516 2 -16.9419 -67.2657 -10.0349 -570.977 475.681 -437.202 -110.695 107.927 -194.089 -237.193 1076.15
2520 2 -17.1159 -64.2915 -9.90245 -608.336 408.189 -499.403 -1.76995 -57.1366 184.411 -252.77 1022.88
5005 1 -14.0004 -65.6634 -12.1306 1028.42 1345.14 1169.03 -12.7865 -144.371 26.6694 -834.832 375.1
5006 1 -11.4419 -68.6139 -8.54029 1017.88 1375.04 1080.83 -79.2844 101.817 32.7165 -821.907 402.762
5007 1 -11.4543 -65.7412 -10.1687 1124.15 1117.77 1022.52 14.2494 28.0837 -10.1102 -836.228 114.027
5009 2 -15.3761 -68.646 -8.41847 -457.326 -624.669 -232.679 7.78655 233.011 -23.1368 -238.593 529.843
5011 2 -13.7329 -67.166 -12.9517 -488.302 433.759 -315.904 -116.784 -70.8429 293.027 -246.268 1017.11
5012 2 -11.434 -67.1066 -9.2976 -555.057 348.971 -435.138 -47.9471 52.6663 -173.313 -255.96 910.257
5013 2 -12.8872 -65.6024 -10.9918 -401.71 -613.353 -364.457 -62.782 287.123 -51.7187 -237.928 566.775
5014 2 -12.8553 -68.6824 -7.82856 -374.069 -635.767 -459.222 -34.1255 -206.73 62.0392 -247.097 443.515
5016 2 -11.2833 -64.2571 -9.45271 -599.05 427.96 -577.18 -18.3417 -43.045 149.352 -243.546 1051.79
5111 2 -13.8747 -64.269 -13.0222 -563.15 356.122 -476.782 55.6455 -50.7624 -226.615 -240.165 971.704
5020 1 -14.3321 -68.6317 -7.14078 967.006 1122.37 1189.74 -114.418 -8.29202 43.223 -831.135 290.221
5015 2 -13.906 -70.0035 -12.9193 -544.75 291.014 -512.156 -21.5213 100.522 -191.007 -250.016 901.93
4920 2 -16.9841 -70.1162 -9.86527 -599.354 183.835 -525.212 39.8095 57.8178 59.3095 -248.772 765.605
112 1 -24.1662 -62.943 -13.7531 1063.63 1145.7 992.673 -20.6783 -67.1944 76.6606 -834.785 223.725
110 1 -21.574 -62.8951 -8.61995 896.26 1274.73 1009.67 -72.3679 59.711 67.2082 -847.273 391.325
115 2 -24.1403 -61.5188 -12.8376 -565.87 441.638 -535.063 90.6285 58.6128 156.811 -244.774 1045.8
116 2 -21.3989 -61.4523 -9.39862 -526.679 249.501 -413.384 56.3465 -3.16273 -210.896 -244.882 818.743
118 2 -23.02 -62.883 -7.9676 -387.912 -673.751 -498.903 25.6483 -57.2294 -21.4825 -245.354 274.738
2611 2 -19.5362 -61.4321 -13.3428 -528.499 361.603 -459.16 -13.0547 -30.9717 213.052 -247.558 935.378
124 1 -24.4386 -62.8445 -7.2341 969.582 1311.28 1054.24 -40.3776 51.4693 108.997 -841.557 378.783
2609 2 -20.3498 -63.0231 -7.5942 -394.474 -693.09 -439.672 32.3112 149.002 18.3964 -235.198 385.317
114 2 -20.409 -59.8797 -11.3407 -807.07 -600.928 -370.046 34.4555 24.5567 41.5744 -244.312 392.367
117 2 -22.8708 -59.9653 -11.0847 -529.062 -622.683 -318.793 14.8237 271.174 -13.0542 -235.942 542.623
109 1 -24.0979 -60.013 -12.1552 980.867 1250.73 1091.86 -33.5847 -28.1416 59.5241 -836.839 267.545
111 1 -21.5093 -59.9871 -10.2115 945.741 1125.31 989.169 -126.153 30.033 -98.7086 -842.444 325.598
120 2 -21.5407 -58.6314 -9.33096 -590.138 263.949 -671.662 -25.0178 -48.8523 65.793 -243.599 909.815
215 2 -24.0523 -58.5836 -12.9411 -520.566 332.529 -582.545 12.5789 39.8725 -104.486 -254.385 906.908
2605 1 -19.4451 -59.9332 -12.6126 971.735 1191.75 952.263 -61.2045 -35.9861 20.8669 -834.383 263.624
2711 2 -19.7031 -58.5569 -13.4432 -626.061 270.271 -649.53 -51.1215 97.0318 -45.2924 -246.103 931.256
2613 2 -17.9682 -59.8676 -11.9533 -532.4 -677.106 -438.035 -14.4288 162.973 -30.4035 -243.337 355.778
7601 2 -10.3372 -62.9918 -7.4332 -581.325 -632.393 -545.727 -65.8304 76.2412 -49.6864 -246.997 208.658
2614 2 -17.8567 -62.7909 -7.80653 -707.17 -620.626 -122.684 33.765 -135.965 -54.6849 -242.656 605.293
5104 1 -13.9782 -62.8066 -13.8732 700.257 1182.5 884.55 3.89877 -76.7628 -75.3914 -843.86 460.897
2606 1 -16.8943 -62.8447 -9.18904 1301.75 1240.62 1165.66 -117.089 -13.8713 -104.625 -820.83 297.465
2612 2 -17.0749 -61.3739 -9.9828 -489.393 648.147 -384.483 -30.3496 43.1541 -270.92 -254.264 1189.2
5102 1 -11.4063 -62.8284 -8.58135 892.333 1189.78 1088.85 63.768 -108.625 51.8175 -831.578 352.552
5105 2 -15.3631 -62.97 -8.47751 -360.964 -571.105 -412.782 -84.047 283.577 -55.8461 -237.393 554.753
5107 2 -13.8312 -61.437 -13.0118 -495.073 322.139 -363.278 -54.9624 -72.1285 272.039 -247.089 907.847
5108 2 -11.1971 -61.3596 -9.32597 -552.727 282.887 -504.667 -24.8133 34.9439 -136.743 -252.99 849.71
5110 2 -12.8928 -62.8746 -7.93495 -566.288 -541.727 -490.05 48.5599 -202.983 -65.9389 -246.088 385.055
5116 1 -14.3266 -62.8547 -7.2949 752.354 1083.91 1083.64 89.862 -72.977 -117.006 -839.433 437.165
5109 2 -12.7778 -60.0711 -11.0073 -293.631 -641.788 -321.396 -2.9465 223.251 -58.666 -245.391 521.721
2610 2 -15.4128 -59.9036 -11.3797 -301.345 -625.15 -412.778 -34.1539 -216.485 50.4865 -249.288 482.627
2607 1 -16.9067 -59.8785 -10.7833 868.932 1403.83 984.257 18.4912 -54.2228 -76.5299 -826.019 514.918
2616 2 -17.0656 -58.3693 -10.0585 -587.944 265.115 -574.038 -39.9509 -56.1681 87.7383 -250.441 867.978
5101 1 -13.9684 -59.964 -12.1 975.086 1254.74 1100.2 -90.3711 -14.0641 119.777 -825.466 356.381
5103 1 -11.3748 -59.9744 -10.1752 1111.6 1109.35 833.968 -55.8964 37.6536 25.882 -832.049 303.472
5112 2 -11.4275 -58.5018 -9.46021 -578.948 244.781 -497.256 -36.4843 35.9386 106.225 -254.015 812.176
5207 2 -13.8312 -58.5443 -12.8769 -604.234 218.315 -504.143 -5.89213 -7.94933 -84.7013 -255.285 791.26
5106 2 -10.186 -60.0167 -11.2427 -700.949 -597.793 -270.268 -27.1525 -65.2238 120.847 -242.641 458.788
2807 2 -19.6716 -52.7324 -13.3222 -586.428 629.209 -462.934 7.43021 31.3066 -203.788 -245.286 1212.68
208 1 -24.1819 -57.151 -13.7578 938.916 1305.43 1100.97 -52.8842 24.7275 43.1719 -823.307 342.077
205 1 -24.2254 -54.2831 -12.0245 831.813 1363.01 1083.89 63.4061 -135.736 -137.632 -833.244 579.628
206 1 -21.6509 -57.1293 -8.59322 781.952 1343.13 902.951 3.78629 -85.8198 -69.9303 -829.307 546.319
207 1 -21.6408 -54.3076 -10.1825 967.901 1111.33 736.181 48.9472 28.5965 22.1028 -835.265 344.398
210 2 -20.5268 -54.2893 -11.2969 -532.336 -672.449 -221.471 -24.3431 -104.262 39.1299 -246.595 445.879
211 2 -24.0673 -55.6781 -12.8542 -453.634 420.821 -422.125 -43.4248 -33.2574 297.372 -250.967 1006.17
212 2 -21.4997 -55.6872 -9.3752 -571.081 91.9029 -498.27 -41.4982 52.735 -17.0993 -257.438 641.064
213 2 -23.0776 -54.2991 -10.9146 -504.918 -692.659 -392.408 -46.4854 145.812 -19.314 -242.242 374.718
214 2 -23.1035 -57.1226 -7.91275 -490.84 -666.78 -484.707 32.3596 -206.183 15.3501 -242.37 404.295
216 2 -21.5529 -52.8556 -9.39457 -572.282 316.415 -453.706 -96.8811 -53.7307 148.866 -249.999 895.414
311 2 -24.1401 -52.7454 -12.8032 -480.601 550.761 -395.111 -38.8332 64.2189 -270.191 -243.117 1103.97
2701 1 -19.518 -54.288 -12.6133 1020.5 1415.72 1074.58 28.4538 -78.7692 -76.9088 -813.381 420.165
2705 2 -20.567 -57.2695 -7.45093 -850.348 -650.869 -509.863 -97.2754 38.3413 -57.1731 -250.705 361.118
2707 2 -19.7966 -55.6992 -13.4783 -423.757 149.951 -484.812 52.9415 13.0301 113.031 -265.286 644.315
220 1 -24.5087 -57.1515 -7.16318 906.031 1286 1166.15 -81.1658 63.3396 97.2313 -846.304 416.366
2709 2 -18.056 -54.271 -11.9527 -348.629 -611.789 -260.171 148.504 339.306 143.454 -249.076 757.39
304 1 -24.3218 -51.3071 -13.6714 905.114 1277.8 983.358 -126.824 -305.396 -62.5307 -830.691 675.012
310 2 -23.1851 -51.2449 -7.95832 -241.06 -644.987 -464.104 -117.408 -147.956 85.6235 -248.952 501.83
316 1 -24.5941 -51.2931 -7.19463 871.599 1144.55 967.933 34.5107 8.72378 2.8736 -831.445 247.618
2710 2 -18.1363 -57.0821 -8.02164 -487.061 -539.7 -190.544 39.9299 -181.99 -104.872 -249.632 493.396
5200 1 -14.0344 -57.1326 -13.6986 969.769 1233.69 925.44 17.1711 -143.693 -44.5322 -829.452 389.993
2702 1 -16.9899 -57.0244 -9.17384 1054.13 977.011 968.229 -76.7252 -39.4422 -43.4286 -830.055 186.244
2703 1 -16.8974 -54.1184 -10.7897 852.269 1222.62 1070.86 -82.7805 38.9284 -133.119 -818.688 426.912
2706 2 -15.4699 -54.1903 -11.4996 -536.359 -682.444 -522.181 11.1791 -110.878 17.9993 -250.541 248.68
2708 2 -17.0277 -55.5948 -9.93377 -497.036 269.477 -449.361 65.6854 4.30717 -181.526 -252.855 815.552
2712 2 -17.069 -52.7138 -10.0325 -532.282 118.438 -454.462 58.2621 24.8112 136.03 -262.942 668.128
5197 1 -14.037 -54.1641 -12.149 622.482 1345.33 968.404 -10.4597 18.6786 -29.5737 -819.578 629.382
5198 1 -11.5563 -57.1147 -8.57357 859.431 1098.71 1226.24 126.534 72.3799 68.7758 -828.56 426.585
5199 1 -11.5005 -54.2474 -10.2536 1015.74 1268.15 1061.54 9.92401 129.567 39.5662 -806.338 331.063
5201 2 -15.5832 -57.1647 -8.34887 -413.667 -584.749 -359.418 1.17614 165.067 -13.5927 -247.754 351.842
5203 2 -13.977 -55.6477 -12.9562 -564.642 427.345 -492.22 111.473 109.133 163.046 -247.908 1034.51
5204 2 -11.45 -55.6627 -9.33596 -499.201 350.822 -425.295 -63.7596 17.3622 -269.131 -256.229 946.349
5205 2 -12.9421 -54.1517 -11.0259 -420.63 -548.543 -334.532 15.2885 143.642 3.57427 -260.912 312.132
5206 2 -12.982 -57.202 -7.85492 -327.504 -604.032 -486.509 -57.8549 -221.462 -13.5975 -244.601 464.234
5208 2 -11.1974 -52.7985 -9.4199 -425.373 543.974 -360.945 111.629 43.8563 232.228 -259.949 1042.25
5303 2 -13.9467 -52.7005 -12.9868 -528.227 288.526 -518.974 19.6061 -22.1556 -81.6623 -255.315 825.982
5212 1 -14.4742 -57.1244 -7.19885 1004.67 1275.66 1054.58 -14.8068 7.33239 59.598 -823.817 271.799
5202 2 -10.3891 -54.4025 -11.395 -439.63 -592.772 -330.284 19.4508 -168.964 -26.5221 -256.174 375.561
5302 2 -12.7664 -51.2875 -7.9657 -384.161 -679.851 -332.36 16.2314 -221.804 28.1044 -251.614 506.146
5294 1 -11.3333 -51.2603 -8.7451 832.308 1521.03 948.948 -59.3911 -39.0706 -66.3033 -811.806 660.274
2798 1 -16.9064 -51.3338 -9.1433 1185.37 1177.82 914.729 -50.9963 104.364 -25.175 -815.654 337.103
29 2 -25.6354 -68.642 -0.634251 -551.762 -744.442 -414.356 5.86897 183.262 -67.0198 -233.547 443.638
2524 1 -18.9677 -68.7243 -6.81922 849.665 1139.86 1024.04 72.4867 -3.28638 36.5871 -846.491 289.529
25 1 -24.5629 -65.708 -5.68039 1081.46 1352.87 840.18 -90.6656 251.405 -0.741047 -835.256 641.595
26 1 -21.9252 -68.7012 -2.05229 1039.41 1407.64 1012.26 -17.4598 48.7628 -45.1409 -840.433 400.617
27 1 -21.9034 -65.8306 -3.7547 869.708 1227.15 1096.79 -1.0474 -43.5386 -6.5274 -845.484 322.459
30 2 -20.5363 -65.9831 -4.59895 -414.617 -634.31 -433.769 58.372 -206.505 42.1831 -244.151 433.494
31 2 -24.5958 -67.2181 -6.37558 -552.987 361.973 -472.197 46.066 43.1295 153.632 -247.549 923.318
32 2 -22.1068 -67.2427 -2.90238 -492.797 311.545 -432.338 -6.77941 35.7933 -246.886 -240.432 888.161
33 2 -23.1337 -65.6913 -4.76385 -221.354 -659.202 -307.941 22.1283 256.823 -3.86321 -236.055 600.57
34 2 -23.0882 -68.6698 -0.941551 -473.009 -677.763 -233.021 -88.6879 -174.691 129.107 -241.251 560.188
36 2 -21.9028 -64.4431 -2.86595 -518.75 163.628 -507.571 -141.237 -131.427 105.361 -246.447 776.596
131 2 -24.6119 -64.2778 -6.46963 -611.073 206.786 -580.796 32.1802 4.06208 -39.1323 -248.177 807.959
2521 1 -19.0468 -65.8509 -5.16469 890.033 1437.79 1036.83 -85.2926 -19.3841 -54.143 -833.093 522.423
2525 2 -20.5171 -68.6558 -1.25687 -323.056 -703.303 -319.13 -1.05369 241.6 21.5063 -237.571 567.977
2527 2 -18.7669 -67.3543 -5.92585 -535.889 426.136 -546.843 0.78938 27.8726 193.014 -240.136 1024.81
2627 2 -18.944 -64.3896 -5.99054 -568.522 284.848 -470.752 65.7006 -72.4322 -126.813 -250.966 855.159
2530 2 -17.8888 -68.5435 -0.996557 -518.304 -671.742 -503.131 -59.6172 -56.0035 -19.1699 -244.141 217.431
2436 2 -22.0028 -70.1299 -2.91807 -490.949 352.265 -340.018 -74.9155 -26.4217 302.562 -247.298 948.729
2531 2 -18.7986 -70.1689 -6.09284 -540.026 -26.566 -580.131 -13.6229 -25.2541 -49.656 -249.573 543.792
2536 1 -19.2505 -68.7172 -0.220622 869.431 1345.98 960.593 90.0924 89.0847 44.767 -836.923 496.125
2529 2 -18.0177 -65.8445 -3.93784 -474.124 -651.065 -269.75 0.747029 218.934 -37.6772 -246.552 507.244
2522 1 -16.4109 -68.6377 -1.61089 895.268 1271.07 986.07 21.9897 43.0677 69.5369 -838.806 369.955
2523 1 -16.5673 -65.7474 -3.24533 1140.16 1465.12 922.874 42.572 -39.3493 -22.1283 -835.575 484.743
2526 2 -15.4874 -65.7944 -4.4649 -483.989 -744.032 -276.016 -30.933 -184.485 -4.89166 -229.87 519.618
2528 2 -16.2974 -67.2198 -2.43305 -627.383 430.109 -543.749 -160.899 62.1674 -153.407 -239.263 1093.94
2532 2 -16.3591 -64.2442 -2.53647 -539.895 379.007 -410.442 78.4654 17.1729 202.102 -247.377 940.252
5017 1 -14.393 -65.7339 -5.67614 1089.18 1032.48 976.846 37.3139 24.9868 -19.3399 -847.636 128.983
5018 1 -11.6722 -68.6817 -2.15753 1101.64 1322.62 909.929 74.1543 -12.2226 94.6879 -827.796 414.477
5019 1 -11.8406 -65.8179 -3.75888 997.748 1168.71 1016.47 8.56645 3.71015 -15.5515 -845.687 165.422
5023 2 -14.5619 -67.149 -6.42766 -545.994 266.228 -679.902 -34.3557 -12.6551 19.5708 -249.469 889.702
5024 2 -11.8654 -67.2555 -2.94654 -615.164 284.288 -500.329 -52.9834 -29.0674 -118.564 -249.394 878.659
5025 2 -12.9848 -65.811 -4.87727 -626.969 -621.194 -355.862 -96.4872 180.644 -108.678 -236.01 482.935
5026 2 -12.748 -68.7172 -0.942755 -533.532 -704.973 -172.511 -45.4051 -151.923 50.2699 -244.467 551.932
5028 2 -12.053 -64.3605 -3.00628 -603.376 317.96 -588.787 -70.1191 -41.0036 90.924 -240.114 938.204
5123 2 -14.5757 -64.2788 -6.36391 -493.209 320.887 -527.449 27.2739 -46.611 -150.703 -243.854 876.746
5021 2 -15.2717 -68.5898 -0.501404 -402.338 -696.781 -396.88 8.3729 154.303 20.9919 -244.219 401.614
4932 2 -16.3183 -70.1057 -2.43207 -501.338 281.464 -380.736 25.5863 -20.728 210.821 -249.613 818.233
7428 2 -11.7998 -70.1667 -2.97773 -567.321 302.258 -488.542 108.64 116.199 98.9061 -254.448 893.941
27582 2 -25.5478 -59.9839 -4.42125 -465.644 -684.205 -369.345 18.0907 -144.745 53.9342 -234.401 388.139
2620 1 -18.9644 -62.9523 -6.73068 962.485 1311.66 855.2 -23.8233 110.111 213.156 -841.322 587.604
122 1 -21.9982 -62.9783 -2.12958 898.741 1391.09 859.868 -94.8379 59.7718 -105.183 -845.719 577.88
127 2 -24.5081 -61.3801 -6.3695 -605.262 215.13 -427.11 2.69819 -35.5547 194.598 -237.378 822.221
128 2 -22.0718 -61.4866 -2.92566 -556.382 532.49 -538.883 34.7537 39.9064 -110.932 -237.973 1101.01
130 2 -23.075 -62.914 -1.00649 -617.758 -680.431 -213.522 -8.69259 -88.2472 65.0409 -239.716 478.487
2621 2 -20.6028 -62.9386 -1.29799 -551.573 -690.794 -388.882 -1.72605 221.105 -17.2305 -232.132 464.825
2623 2 -19.0003 -61.4573 -5.85891 -552.247 496.274 -485.632 53.144 40.3887 211.454 -236.818 1086.96
2632 1 -19.4188 -62.934 -0.210551 941.071 1153.89 1205.12 0.461201 -27.9626 58.923 -834.04 267.545
227 2 -24.6232 -58.6104 -6.39405 -614.823 98.5016 -574.742 30.8643 -11.7723 -92.3387 -239.154 714.634
121 1 -24.4216 -59.9745 -5.54583 1097.08 1042.94 891.005 -65.801 25.2775 27.0144 -859.157 226.577
123 1 -21.8783 -59.997 -3.68997 613.398 1372.6 978.281 -101.454 129.506 -109.009 -852.502 741.185
126 2 -20.4783 -60.0526 -4.3113 -888.868 -760.54 -545.739 85.4223 -63.9375 -20.4263 -232.804 354.372
129 2 -22.9484 -59.9498 -4.89258 -516.854 -714.045 -462.657 -10.0844 32.5737 -98.4774 -229.557 291.703
132 2 -22.0686 -58.5043 -3.04533 -580.187 374.056 -575.277 53.5546 -33.054 78.5354 -238.235 967.628
2617 1 -19.0583 -59.9955 -5.05365 830.28 1170.29 936.687 7.95659 33.8191 138.3 -846.153 389.551
2723 2 -18.9626 -58.5976 -5.81897 -527.961 169.017 -355.86 -78.3084 -8.95411 -229.706 -250.887 756.556
2626 2 -18.0248 -62.8471 -1.03293 -436.777 -566.525 -441.713 -0.82497 -194.466 20.6503 -246.161 361.872
2625 2 -17.9169 -60.064 -3.94016 -550.777 -708.883 -403.833 -20.6809 42.3571 -10.6906 -241.626 277.185
2618 1 -16.5388 -62.8652 -1.61516 926.84 1106.45 1044.74 -140.399 18.7402 49.4209 -836.066 304.139
2624 2 -16.369 -61.4255 -2.38283 -654.802 270.365 -387.946 -24.3308 20.8704 -194.381 -246.057 892.578
5114 1 -11.9005 -62.9279 -2.18539 1068.03 1098.95 918.025 60.2986 135.294 40.7835 -845.319 314.492