ITEM: TIMESTEP
240000
ITEM: NUMBER OF ATOMS
29952
ITEM: BOX BOUNDS pp pp pp
-2.5615833775063237e+01 3.5601128117061187e+01
-6.9445577157066253e+01 7.9430871491264995e+01
-2.1035324467156940e+01 3.4903177627851115e+01
ITEM: ATOMS id type x y z v_StrAtomXX v_StrAtomYY v_StrAtomZZ v_StrAtomXY v_StrAtomXZ v_StrAtomYZ c_PEAtom v_VMS
1 1 -24.4883 -65.0269 -19.5309 818.784 1141.55 885.888 154.652 193.361 44.2867 -832.498 526.141
2 1 -21.8529 -67.9715 -16.1292 955.692 1258.3 910.004 -204.857 -157.707 40.8882 -819.97 559.474
3 1 -21.8598 -65.0578 -17.6449 1014.92 1175.62 1049.46 -93.0944 -108.29 -46.2005 -836.831 298.413
6 2 -20.4517 -65.181 -18.5145 -283.26 -586.381 -343.775 11.6873 -341.393 83.16 -239.735 669.332
7 2 -24.6693 -66.456 -20.3209 -470 260.603 -514.152 22.2046 50.4522 129.171 -252.502 791.934
8 2 -21.9664 -66.4218 -16.7632 -549.04 255.754 -537.891 40.4533 34.363 -70.671 -249.736 813.806
9 2 -23.0967 -65.0216 -18.6654 -446.675 -642.979 -374.749 -39.8566 244.657 -11.1229 -239.016 492.479
10 2 -23.0352 -67.9528 -14.9818 -503.043 -660.77 -184.297 -41.4421 -164.994 62.713 -246.757 524.759
12 2 -21.94 -63.5919 -16.8934 -482.846 167.787 -405.075 -33.2036 -33.0171 221.305 -248.215 729.574
107 2 -24.5457 -63.6721 -20.4364 -532.755 36.7978 -413.806 -160.727 69.502 -165.207 -255.058 666.831
2497 1 -18.9691 -65.1961 -19.1868 824.793 1029 928.962 -70.7843 -94.3285 -195.478 -824.745 433.176
2501 2 -20.4765 -67.9991 -15.3224 -507.536 -767.028 -624.63 116.265 28.4821 63.4096 -245.545 325.132
2503 2 -18.8252 -66.5369 -20.0203 -506.826 101.718 -555.676 99.225 44.9995 88.791 -262.004 679.487
2603 2 -18.8745 -63.7317 -19.9718 -549.187 199.2 -460.43 -73.8836 66.2229 -71.3402 -259.059 739.146
2512 1 -19.4112 -67.8367 -14.1847 1056.11 1084.54 830.618 -31.3142 -192.687 -33.7386 -825.831 419.294
2500 1 -19.0648 -67.9957 -20.7947 837.21 1435.81 920.598 9.88105 -99.2196 -74.9181 -805.863 601.681
2507 2 -18.9681 -69.4748 -19.9077 -561.851 313.422 -307.365 31.9893 -47.2965 -254.701 -254.101 901.398
2412 2 -21.8365 -69.3038 -17.0558 -498.103 239.368 -399.36 34.224 -81.8823 93.8932 -264.507 728.608
125 2 -25.4817 -62.2939 -0.401538 -547.524 -704.547 -450.03 13.5151 123.422 38.8627 -253.035 316.62
11 2 -24.7082 -69.3712 -20.293 -450.08 386.103 -363.892 60.5026 -94.6306 -229.928 -256.116 911.597
2506 2 -17.8622 -67.86 -14.8096 -291.687 -562.11 -380.562 -158.246 -265.934 113.376 -246.298 618.745
2505 2 -18.0228 -65.3051 -17.9239 -888.731 -647.273 -435.654 33.5524 -26.3463 -58.6131 -248.441 412.247
2498 1 -16.4635 -68.0482 -15.5516 734.951 1251.08 981.58 -37.7977 -6.07274 -28.9843 -828.062 454.8
2499 1 -16.6227 -65.2111 -17.2411 773.361 1327.71 771.293 -76.6928 -147.67 73.2449 -825.978 638.449
2502 2 -15.5582 -65.2162 -18.4367 -432.867 -646.467 -141.23 -6.41375 -202.728 42.3314 -249.593 567.245
2504 2 -16.3876 -66.5859 -16.4064 -585.115 248.172 -586.848 -22.2788 24.1918 -102.178 -244.088 854.623
2508 2 -16.545 -63.7295 -16.4119 -487.286 292.706 -279.295 123.569 78.6364 274.333 -252.101 882.922
4993 1 -14.3447 -65.1713 -19.5934 908.5 1346.6 954.312 2.57202 -149.979 -161.4 -805.384 565.342
4994 1 -11.7871 -67.9894 -16.1496 988.448 1168.6 806.932 139.858 -10.8715 23.5603 -826.817 398.505
4995 1 -11.7964 -65.1237 -17.7112 855.536 1203.82 960.247 112.843 -20.2232 -90.1844 -820.748 399.531
4999 2 -14.4539 -66.5671 -20.4339 -436.858 294.913 -424.631 2.95846 5.38025 213.611 -266.396 814.673
5000 2 -11.8025 -66.5085 -16.8196 -548.332 150.937 -451.516 56.1295 -121.636 -78.3071 -259.194 709.143
5001 2 -13.0271 -65.2391 -18.7246 -591.768 -649.665 -330.777 -74.0704 137.59 21.3147 -257.763 401.49
5002 2 -12.8962 -68.1106 -14.9762 -603.128 -660.715 -244.866 22.3778 -81.7942 -14.8835 -248.093 417.777
5004 2 -11.8093 -63.6445 -16.9763 -565.855 338.863 -465.797 60.5261 49.9074 187.449 -253.357 928.372
5099 2 -14.448 -63.6456 -20.3547 -547.765 370.694 -461.267 -4.2856 -25.9834 -99.9801 -260.335 896.478
4997 2 -15.3421 -67.8872 -14.4257 -719.667 -642.412 -435.593 58.2156 76.2696 11.4286 -245.133 304.517
7493 2 -10.3721 -68.0318 -15.3752 -433.218 -711.519 -293.143 -51.1009 181.049 9.79644 -240.692 492.456
4908 2 -16.3348 -69.4471 -16.3361 -468.193 162.458 -402.684 23.7237 -8.20311 131.121 -262.448 643.559
98 1 -21.849 -62.1492 -16.0593 1027.32 1133.65 807.625 92.1318 118.758 122.32 -835.22 442.259
103 2 -24.6199 -60.8305 -20.3916 -689.832 146.198 -556.012 61.6635 51.4622 126.709 -244.615 820.057
104 2 -22.0201 -60.8183 -16.936 -577.882 117.341 -551.231 16.2886 -70.376 -135.975 -245.301 732.556
106 2 -22.948 -62.1524 -14.9385 -513.291 -668.632 -376.418 -53.9126 -35.9949 -4.89618 -251.362 277.138
2597 2 -20.3658 -61.9906 -15.3691 -311.304 -633.709 -383.909 45.8965 116.012 -31.7615 -243.103 368.144
2599 2 -18.9133 -60.7917 -19.787 -507.581 412.325 -364.404 -41.5259 10.5281 278.227 -249.836 986.283
2596 1 -19.0188 -62.2775 -20.6629 1025.54 1327.02 867.978 97.635 -74.7997 99.1915 -820.519 487.971
97 1 -24.6075 -59.4176 -19.5865 1026.44 1220.69 833.22 18.4772 71.0354 -210.993 -831.031 512.168
99 1 -21.9539 -59.3158 -17.7023 806.308 1170.86 1130.06 69.0235 92.1044 -44.458 -827.572 406.647
102 2 -20.5762 -59.2243 -18.4877 -527.074 -593.283 -493.34 -43.5774 -125.806 -2.4409 -253.912 246.883
105 2 -23.1737 -59.3931 -18.8024 -184.537 -659.009 -359.406 -11.3943 228.484 59.1648 -241.029 583.299
108 2 -22.1019 -57.9998 -16.7898 -451.715 119.298 -443.833 41.0143 60.8893 115.334 -261.795 614.567
2593 1 -19.1041 -59.3326 -19.0454 798.461 1202.03 1083.89 113.393 36.6438 -57.8248 -827.75 426.357
2699 2 -18.8065 -57.9768 -19.9909 -566.667 193.659 -442.291 33.7014 -54.8167 -157.515 -251.45 765.41
203 2 -24.5632 -57.9776 -20.4857 -544.512 82.4674 -357.409 103.233 -81.0088 -131.701 -251.696 643.812
2602 2 -17.8212 -62.2641 -14.798 -493.969 -751.665 -505.41 -56.7414 -87.2307 47.2059 -243.834 320.564
2601 2 -18.0251 -59.2457 -17.8397 -187.772 -574.755 -362.361 -73.1428 234.995 10.9945 -249.09 542.913
27558 2 -25.7961 -59.5399 -18.5664 -548.306 -599.519 -427.974 73.9397 -26.1555 -38.3583 -251.524 214.786
5224 1 -13.8375 -56.649 0.280453 959.029 1222.35 857.158 132.648 -59.1844 83.2765 -827.159 436.622
2594 1 -16.4443 -62.2916 -15.5707 803.337 1301.53 891.008 104.381 170.688 35.2523 -827.273 579.672
2600 2 -16.3904 -60.8606 -16.3754 -539.207 332.024 -428.975 -84.627 17.971 -171.622 -251.382 886.551
5090 1 -11.6514 -62.2021 -16.1443 995.349 1371.45 994.366 -84.039 -28.747 -63.6384 -812.45 421.476
5095 2 -14.2595 -60.7537 -20.3989 -603.028 140.512 -395.382 -19.7925 -45.8373 123.148 -255.593 703.243
5096 2 -11.7833 -60.7303 -16.9643 -509.456 221.371 -493.419 -55.5845 45.1426 -78.7136 -256.924 746.066
5098 2 -12.7032 -62.161 -14.9177 -514.923 -617.523 -204.658 9.91026 -167.643 59.19 -254.557 483.469
5093 2 -15.2102 -62.205 -14.5265 -517.289 -617.584 -296.145 68.5508 122.996 121.03 -250.547 429.616
2595 1 -16.5165 -59.3683 -17.1816 1120.45 1132.03 970.157 17.6076 3.1529 -207.589 -817.353 393.32
2598 2 -15.4433 -59.413 -18.4036 -404.501 -612.904 -269.392 -31.3079 -142.737 41.0181 -255.864 398.689
2604 2 -16.2873 -58.0162 -16.3613 -592.88 95.7531 -584.753 -29.3005 -14.2456 33.6103 -259.086 689.39
5089 1 -14.2935 -59.3909 -19.5147 937.827 1250.3 833.84 -52.5367 -58.2995 -115.6 -830.04 446.669
5091 1 -11.7482 -59.2909 -17.6798 877.3 1118.02 954.484 -34.77 -37.3395 10.7686 -832.383 231.261
5097 2 -12.8877 -59.2986 -18.7953 -561.414 -724.428 -502.85 40.0023 12.9184 9.41923 -244.136 212.409
5100 2 -11.9193 -57.8685 -16.8724 -581.181 248.346 -534.645 -28.7987 -72.156 114.781 -254.009 842.205
5195 2 -14.426 -57.922 -20.3746 -593.073 353.562 -288.785 22.006 -38.3393 -307.19 -238.023 994.796
5321 2 -15.5624 -50.8946 5.81975 -547.644 -644.364 -432.241 -14.9665 114.399 -12.2752 -247.824 272.433
5094 2 -10.2885 -59.2617 -18.4079 -214.202 -636.679 -410.399 -105.718 -229.456 89.5589 -240.84 591.297
2692 1 -18.9421 -56.5742 -20.7907 1030.84 1282.21 854.799 82.5079 -30.3981 56.1694 -830.617 413.626
193 1 -24.5513 -53.7316 -19.6099 928.87 1222.77 1005.39 7.04304 213.78 -18.614 -813.066 456.113
194 1 -21.8329 -56.5226 -16.0719 909.904 1363.27 871.764 91.2315 -22.2882 12.5787 -824.763 501.224
195 1 -21.8394 -53.7325 -17.8807 731.691 1231.01 1061.96 53.6699 -97.8327 -8.8633 -831.237 480.704
198 2 -20.4244 -53.7869 -18.6361 -434.825 -633.734 -502.974 2.36303 -118.357 -54.1036 -247.301 285.443
199 2 -24.6551 -55.2061 -20.3587 -531.1 148.06 -561.991 -87.8041 -79.7339 110.968 -253.863 749.89
200 2 -21.949 -55.1107 -16.9323 -542.528 297.817 -478.702 16.7351 -24.3088 -215.219 -247.611 893.414
201 2 -23.0235 -53.7483 -18.8879 -353.542 -600.795 -459.759 -15.1884 209.028 -29.3847 -247.178 424.87
202 2 -22.8478 -56.3655 -14.838 -555.56 -694.66 -270.537 -66.5309 -105.141 47.554 -244.024 439.842
204 2 -21.8296 -52.2678 -17.065 -518.984 151.1 -470.317 34.4823 24.5594 172.622 -250.315 716.619
299 2 -24.7041 -52.3342 -20.4682 -442.071 378.317 -480.126 28.5478 11.4962 -189.695 -260.883 903.603
2689 1 -18.9638 -53.6488 -19.2645 817.038 1287.8 1027.59 64.7762 -13.3101 33.5308 -828.934 428.158
2693 2 -20.3723 -56.4452 -15.3912 -519.637 -668.056 -373.536 107.468 215.676 65.3699 -246.078 502.07
2695 2 -18.754 -55.0831 -20.0614 -548.808 360.515 -472.978 53.4882 91.0403 113.15 -252.07 914.068
2795 2 -18.8844 -52.143 -19.9753 -525.615 355.969 -618.88 -33.5263 -43.686 -66.5935 -249.378 943.669
2704 1 -19.2966 -56.4324 -14.2159 885.372 1314.93 1026.09 -84.4701 -128.289 -25.656 -826.049 465.434
197 2 -25.3698 -56.584 -14.5789 -600.222 -706.151 -337.682 -33.2069 127.832 -32.5897 -247.426 404.322
27486 2 -25.4558 -65.1577 -4.26581 -562.546 -578.095 -216.579 -14.1032 -118.687 24.0481 -255.062 412.196
2726 1 -16.7142 -56.5156 4.97996 770.102 1340.75 791.024 48.9197 -108.629 43.8791 -823.415 602.072
290 1 -21.6902 -50.8592 -16.2658 1013.93 983.034 1012.41 14.8546 -210.611 28.6233 -828.825 370.272
27666 2 -25.5531 -53.5036 -11.4313 -123.163 -712.421 -408.258 -27.5056 -265.467 -11.2994 -227.536 688.898
2698 2 -17.8541 -56.5166 -14.9215 -461.506 -572.082 -342.216 -26.0002 -259.977 46.6655 -250.408 500.973
17 2 -25.6248 -67.9683 -8.34581 -412.685 -671.805 -225.398 -45.2628 187.455 13.1807 -248.96 512.675
2697 2 -17.8723 -53.5453 -18.0805 -325.101 -604.106 -285.066 -15.6264 264.735 -7.17591 -246.851 549.325
2690 1 -16.4318 -56.5293 -15.6942 1029.01 1040.3 1018.6 18.8657 76.0442 -25.9171 -823.914 144.169
2691 1 -16.4181 -53.693 -17.3175 1026.16 1170.01 879.232 -127.36 114.875 -9.62252 -821.342 389.803
2694 2 -15.3416 -53.7834 -18.463 -502.568 -701.673 -372.08 51.7055 -73.9176 -31.8292 -248.986 331.817
2696 2 -16.2904 -55.1558 -16.5087 -508.186 206.08 -529.239 -53.1519 86.0918 -109.919 -258.118 769.814
2700 2 -16.2212 -52.3337 -16.43 -524.884 134.174 -445.815 28.0709 -12.967 141.04 -257.446 671.597
5185 1 -14.2851 -53.6676 -19.7021 1109.11 1170.66 852.585 44.9391 24.7846 -86.1869 -827.288 339.954
5186 1 -11.7573 -56.441 -16.0839 1128.72 1172.84 960.133 -62.1361 98.4918 -43.1055 -823.185 289.941
5187 1 -11.7319 -53.6122 -17.7667 852.792 1060.5 1062.4 75.8671 131.09 -102.257 -829.146 379.121
5191 2 -14.4602 -55.0912 -20.4851 -550.196 117.243 -490.042 -10.128 -0.431126 161.801 -249.195 698.421
5192 2 -11.8852 -55.0112 -16.9293 -491.026 247.32 -438.191 -69.9618 47.9572 -200.772 -256.735 807.123
5193 2 -12.8092 -53.6214 -19.0174 -386.615 -591.084 -164.441 -24.7234 244.553 30.7475 -245.369 566.291
5194 2 -12.7571 -56.3666 -14.8417 -529.488 -544.431 -103.351 30.7574 -230.947 -5.37228 -249.36 592.552
5196 2 -11.8112 -52.2206 -16.9821 -551.472 -21.727 -440.817 12.4123 -32.5548 121.927 -261.445 531.503
5291 2 -14.4938 -52.257 -20.4901 -532.553 182.958 -430.53 48.6765 -61.6664 -85.9219 -255.665 700.021
5189 2 -15.2774 -56.4892 -14.4845 -375.554 -588.602 -195.219 -3.53504 303.379 39.5258 -241.661 630.214
7685 2 -10.2627 -56.5869 -15.3582 -429.662 -603.977 -350.919 -112.625 179.655 -82.9889 -242.024 453.712
5226 2 -10.3531 -53.816 2.66099 -684.268 -693.582 -352.736 2.59376 -32.5692 -3.25812 -244.667 341.061
5190 2 -10.2927 -53.6694 -18.4689 -526.811 -708.495 -488.028 -63.532 -208.795 45.6894 -242.607 436.711
7721 2 -10.0699 -56.5454 6.32092 -376.272 -683.1 -315.552 20.995 211.158 -0.58782 -244.434 501.545
5229 2 -12.829 -53.6833 2.97302 -327.959 -710.447 -317.34 -34.4594 276.766 -39.3948 -239.52 623.288
5034 2 -10.3943 -65.1837 2.63054 -496.531 -673.63 -163.183 57.3054 -186.723 -181.158 -245.788 643.757
5290 2 -12.6655 -50.7344 -14.8622 -390.928 -599.498 -220.127 -51.4282 -146.343 54.8 -262.023 435.305
2615 2 -19.5 -63.5896 -13.439 -564.554 149.615 -504.185 -47.6979 80.785 -51.9301 -254.38 710.677
16 1 -24.0749 -68.0286 -13.7671 938.64 1232.84 877.854 107.26 26.1482 -144.943 -829.393 455.766
13 1 -24.0955 -65.1417 -12.1103 651.075 1358.59 972.902 -3.90648 -68.4143 51.2647 -829.926 631.209
14 1 -21.5772 -67.9861 -8.5941 789.562 1458.7 780.645 -8.18224 42.9943 -69.6928 -824.209 688.552
15 1 -21.5661 -65.0617 -10.2208 1055.36 1310.99 956.059 62.0859 19.0074 4.30952 -825.815 336.596
18 2 -20.4736 -64.9532 -11.4251 -599.131 -656.648 -262.817 43.946 -156.097 -79.9982 -244.126 483.581
19 2 -23.9101 -66.6416 -12.9462 -442.859 268.825 -396.744 -27.0203 50.5506 252.182 -250.921 822.464
20 2 -21.5316 -66.5044 -9.46465 -573.045 358.019 -370.332 71.3208 -85.0424 -179.915 -250.84 923.741
21 2 -22.9964 -65.0001 -10.9908 -566.961 -668.924 -455.705 49.0538 147.749 161.517 -242.18 430.22
22 2 -22.9564 -67.9795 -7.84435 -283.215 -718.715 -403.409 37.2428 -122.025 -26.3475 -252.286 450.196
24 2 -21.3509 -63.6274 -9.34802 -473.77 261.843 -482.196 39.4561 12.7993 161.263 -253.248 794.087
119 2 -23.8724 -63.7533 -12.9627 -523.416 372.407 -540.595 149.465 -145.484 -142.371 -246.592 1004.74
2509 1 -19.404 -65.026 -12.6085 858.656 1176.88 822.152 -11.3733 21.5465 -46.7215 -828.53 350.062
2515 2 -19.6788 -66.433 -13.4064 -514.46 89.7332 -456.973 14.7671 -26.107 114.483 -257.018 612.894
28 1 -24.4498 -67.9839 -7.15018 1065.41 1207.71 998.656 57.9617 80.4345 -13.5323 -812.56 253.462
2513 2 -20.3028 -67.8952 -7.67088 -361.919 -699.382 -343.367 7.46366 144.728 30.5468 -247.738 431.614
23 2 -23.9002 -69.4569 -12.9245 -512.548 242.122 -326.286 -42.5445 6.90842 -218.964 -253.694 782.983
5225 2 -15.1913 -56.4503 5.39965 -575.911 -661.371 -436.113 -2.16828 56.1239 -15.1851 -250.185 221.245
2519 2 -19.6357 -69.2441 -13.3793 -501.751 202.184 -523.175 96.86 -104.882 -86.922 -255.574 771.283
2518 2 -17.7485 -68.0048 -7.82505 -473.496 -608.796 -59.4918 24.9406 -250.14 -79.1904 -253.132 673.877
2517 2 -18.0153 -65.0655 -11.8697 -664.02 -713.856 -487.682 94.3804 69.6267 66.063 -248.446 311.008
5008 1 -13.9188 -68.0022 -13.7525 851.037 1243.41 855.132 -110.675 -19.5819 -17.44 -831.125 437.236
2510 1 -16.7798 -67.9398 -9.16724 1079.44 1345.96 1130.5 73.073 -29.6634 -26.7788 -811.538 284.328
2511 1 -16.8387 -65.0527 -10.8082 951.874 1316.61 845.862 -11.8992 -92.9475 93.0344 -823.032 485.021
2514 2 -15.3705 -65.1028 -11.5026 -174.451 -631.174 -280.682 -51.6753 -245.374 -18.427 -255.423 600.847
2516 2 -17.019 -66.5386 -10.0764 -578.6 360.199 -336.194 26.2781 -54.6648 -266.619 -251.486 967.898
2520 2 -17.0149 -63.6288 -9.96534 -592.288 245.53 -469.691 -65.7643 -95.135 129.412 -257.164 839.419
5005 1 -13.8983 -65.0791 -12.1773 987.063 1500.03 883.632 153.178 17.675 33.9417 -821.184 633.774
5006 1 -11.4016 -68.1934 -8.62158 969.583 1480.1 960.12 -34.0447 123.55 -66.9324 -828.504 572.939
5007 1 -11.3054 -65.2411 -10.2935 1065 1471.12 821.709 41.8387 0.399185 -90.8118 -834.375 594.074
5009 2 -15.2897 -67.8688 -8.5337 -405.752 -564.478 -346.991 32.3998 232.506 23.2471 -254.874 452.683
5011 2 -13.7465 -66.5761 -12.9405 -608.976 338.944 -395.646 -69.1813 -93.8354 166.202 -249.759 930.314
5012 2 -11.4242 -66.7343 -9.47697 -503.538 462.012 -268.422 30.9311 -59.8688 -303.375 -247.633 1024.83
5013 2 -12.6907 -65.0288 -11.1239 -239.993 -777.244 -403.789 -106.931 119.394 -37.5142 -243.698 555.659
5014 2 -12.8239 -68.298 -7.9221 -380.778 -662.833 -444.231 -66.2085 -154.586 63.9257 -250.629 403.466
5016 2 -11.1972 -63.8353 -9.45452 -677.801 240.261 -547.607 -30.2298 -14.5517 118.127 -239.267 886.284
5111 2 -13.6863 -63.5897 -12.9624 -537.494 249.849 -500.26 98.9068 -140.135 -81.3841 -253.231 836.726
5020 1 -14.2847 -68.0352 -7.30629 779.269 1252.84 1009.88 41.5199 -81.5544 16.2795 -823.738 440.633
5214 2 -10.2962 -53.7824 -4.52645 -628.501 -696.193 -619.07 60.4949 16.5977 -38.0043 -244.107 146.451
5118 2 -10.2213 -59.2577 -4.3151 -461.258 -684.849 -531.456 -28.1486 -109.863 -33.025 -252.507 284.751
2608 1 -19.2995 -62.1607 -14.1718 820.85 1231.8 939.787 -118.602 -8.56719 -25.513 -829.739 422.516
112 1 -23.9581 -62.2178 -13.6763 1178.2 1262.5 952.708 43.6605 100.52 -68.6378 -824.276 356.55
110 1 -21.4919 -62.2137 -8.56137 708.865 1247.96 1018.7 -26.024 -60.4415 -26.8555 -829.878 484.503
115 2 -23.7632 -60.8745 -12.8164 -538.186 273.59 -417.853 1.42131 31.134 149.343 -259.397 803.492
116 2 -21.3775 -60.7842 -9.45682 -417.335 104.491 -476.577 17.0688 -7.64451 -166.924 -252.933 625.592
118 2 -22.8809 -62.1934 -7.74373 -781.556 -599.53 -367.944 21.7203 -295.708 -59.5189 -248.562 635.053
2611 2 -19.4558 -60.714 -13.3748 -491.36 316.784 -432.534 -3.63953 -19.8347 204.695 -252.612 857.868
124 1 -24.3254 -62.242 -7.16167 704.455 1379.53 933.966 79.6901 24.6715 -16.1761 -822.832 612.473
2609 2 -20.428 -62.1718 -7.40632 -666.368 -719.167 -419.259 -10.6552 89.192 -77.3633 -238.232 345.05
114 2 -20.5623 -59.3302 -11.4035 -572.183 -714.849 -442.959 9.31244 -2.13123 30.1525 -247.78 241.847
117 2 -22.9655 -59.1958 -10.8874 -567.299 -640.126 -360.284 -10.7163 173.618 -2.50093 -245.209 392.464
109 1 -23.9859 -59.3516 -12.1235 1137.73 1315.95 968.35 53.1048 -34.0807 45.9005 -821.388 330.005
111 1 -21.5421 -59.3568 -10.1874 709.732 1178.43 779.372 -75.5534 79.7578 89.2184 -838.06 501.97
120 2 -21.3579 -57.9901 -9.28097 -501.441 419.909 -468.35 29.4093 -70.4101 243.511 -240.719 1007.4
215 2 -23.8315 -57.9686 -13.0033 -575.504 275.228 -467.114 -53.7661 -32.8417 -165.989 -253.41 858.981
2605 1 -19.3634 -59.2871 -12.4984 939.152 1374.51 875.236 31.5088 -88.0233 48.6453 -819.377 504.75
2711 2 -19.5034 -57.8322 -13.3217 -542.826 326.339 -364.42 31.727 -6.7437 -266.743 -249.647 921.317
2613 2 -17.9729 -59.2095 -11.7443 -605.527 -684.098 -505.336 23.7858 6.4511 34.6851 -256.149 171.8
2614 2 -17.9319 -62.2581 -7.91063 -562.518 -657.276 -158.162 84.2924 -138.329 -76.8885 -248.313 554.306
5104 1 -13.8115 -62.1904 -13.7481 926.774 1136.83 846.586 -54.4627 68.7161 11.909 -824.914 301.476
2606 1 -16.8508 -62.231 -9.15748 1157.6 1112.68 937.225 -64.8311 -20.0392 -94.3274 -816.002 284.94
2612 2 -16.9784 -60.8029 -9.96709 -522.001 84.1508 -449.828 -32.9165 53.5901 -67.6743 -266.118 595.388
5102 1 -11.3443 -62.3845 -8.64185 904.392 1389.24 921.641 106.96 -117.267 -130.26 -835.35 594.551
5105 2 -15.412 -62.3871 -8.37849 -359.078 -555.852 -262.168 -39.4326 299.923 -8.33716 -248.356 584.735
5107 2 -13.7565 -60.7625 -12.8877 -532.158 313.748 -398.252 -18.6794 -69.2818 220.278 -255.835 883.873
5108 2 -11.3294 -60.938 -9.5152 -546.251 272.313 -406.259 -89.4545 43.678 -133.981 -244.146 811.563
5110 2 -12.8035 -62.5274 -7.94245 -112.037 -557.396 -407.797 -9.82418 -228.045 -11.5249 -245.501 557.495
5116 1 -14.2886 -62.3502 -7.20798 1079.28 1006.91 1087.86 -17.807 -141.643 -4.18315 -824.33 259.084
5109 2 -12.8717 -59.2993 -10.8655 -659.388 -721.441 -251.922 70.4207 97.4454 27.0828 -247.86 490.64
2610 2 -15.3928 -59.373 -11.4017 -502.887 -679.977 -406.044 -10.2199 -181.548 5.13428 -248.914 396.434
2607 1 -16.841 -59.3689 -10.6739 822.396 1123.14 831.632 -10.5673 -110.768 103.797 -818.392 396.509
2616 2 -16.8879 -57.9375 -9.79191 -595.402 244.513 -530.67 -25.3748 -10.3398 117.447 -256.593 836.01
5101 1 -13.9591 -59.3341 -12.071 808.139 1386.42 918.276 -22.0092 92.5851 28.3404 -822.386 558.951
5103 1 -11.4572 -59.4401 -10.2091 943.332 1297.52 656.387 -19.2351 -89.7005 21.6471 -839.045 579.721
5112 2 -11.089 -58.0749 -9.42223 -571.447 148.445 -467.251 60.0478 16.6674 43.6906 -252.614 686.636
5207 2 -13.8117 -57.8266 -12.7803 -524.999 263.17 -476.176 31.4226 -82.7447 -127.351 -255.408 810.722
2807 2 -19.4937 -52.2772 -13.4633 -536.995 161.089 -495.089 -16.06 31.7883 -148.175 -251.972 727.665
208 1 -24.0404 -56.5121 -13.7503 939.22 1293.7 817.158 15.398 -121.763 52.964 -830.048 487.27
205 1 -24.0667 -53.6483 -12.1712 1010.54 1250.23 966.469 25.8214 -179.454 -42.4996 -837.648 417.121
206 1 -21.4125 -56.4116 -8.53021 877.51 1271.17 1093.49 -44.7873 68.9612 83.4951 -819.284 397.233
207 1 -21.6261 -53.7383 -10.2404 930.736 1222.61 887.43 -98.4509 -202.453 215.517 -822.18 625.369
210 2 -20.5438 -53.6169 -11.4844 -561.227 -654.215 -317.077 15.4776 -113.27 -12.0429 -245.411 361.39
211 2 -24.058 -55.0753 -12.8869 -567.577 200.877 -576.262 18.9331 41.225 33.0924 -251.92 778.929
212 2 -21.2723 -55.1295 -9.48993 -498.009 -1.8824 -427.83 -69.0303 62.959 -114.71 -266.55 530.953
213 2 -23.0239 -53.7694 -10.9434 -709.343 -703.644 -339.174 -56.285 148.971 -126.93 -243.018 509.277
214 2 -22.8386 -56.3859 -7.80551 -177.619 -563.573 -380.513 198.227 -327.147 -116.426 -249.306 769.052
216 2 -21.6393 -52.3206 -9.31499 -516.29 443.351 -284.484 -16.1306 -35.1442 252.357 -250.911 973.515
311 2 -23.8575 -52.1753 -12.9066 -566.327 292.475 -417.86 -19.6222 107.375 -208.095 -250.28 893.159
2701 1 -19.385 -53.6192 -12.5532 977.317 963.494 807.586 52.9688 126.344 -24.2561 -834.462 291.074
2705 2 -20.3222 -56.5287 -7.31544 -532.593 -547.258 -132.749 -53.6679 298.732 -91.4559 -247.391 683.674
2707 2 -19.5237 -54.9954 -13.366 -486.895 35.1825 -441.014 -33.8768 -13.0598 172.716 -251.339 586.655
220 1 -24.3759 -56.5296 -7.16467 986.824 1304.46 1114.45 98.5561 -117.882 -3.27988 -816.51 384.062
2732 2 -16.9596 -55.0774 4.2122 -568.133 211.026 -338.527 97.4445 -25.404 -215.865 -255.683 806.922
2709 2 -17.9797 -53.5885 -11.727 -524.075 -617.077 -421.497 -46.9424 107.703 -64.2331 -249.11 287.228
2710 2 -17.8956 -56.5847 -7.78023 -520.478 -633.697 -175.931 10.039 -148.579 -66.4996 -248.738 500.337
5200 1 -13.9034 -56.4311 -13.6188 1120 953.28 1095.57 42.8995 -21.197 -68.5768 -824.483 212.829
2702 1 -16.7751 -56.5247 -9.04351 1170.86 1160.5 930.036 51.3408 -137.47 -112.57 -815.519 397.775
2703 1 -16.843 -53.6103 -10.6383 861.95 1240.31 896.117 -42.2516 -108.844 -16.5089 -819.757 416.066
2706 2 -15.4201 -53.4578 -11.3788 -359.024 -590.213 -348.266 17.8335 -244.046 30.8338 -250.445 488.398
2708 2 -16.9159 -55.0678 -9.83334 -523.779 353.5 -336.027 57.8532 -80.8456 -218.314 -259.994 901.549
2712 2 -17.1189 -52.1948 -9.78539 -512.916 113.973 -525.235 -73.0268 -62.6019 80.3871 -256.15 669.333
5197 1 -13.9393 -53.5823 -12.0437 750.312 1207.89 760.861 -97.9761 -107.573 13.2223 -824.389 518.362
5198 1 -11.3019 -56.6397 -8.61325 1027.5 1316.34 963.683 -49.8094 -76.8846 33.7341 -825.335 366.778
5199 1 -11.3655 -53.6926 -10.248 1123.88 1437.72 968.655 53.6081 -32.9938 -56.8799 -812.304 439.206
5201 2 -15.3048 -56.4633 -8.34367 -397.104 -689.309 -331.871 -6.2732 159.173 39.1606 -248.753 435.233
5203 2 -13.8289 -55.0649 -12.7668 -512.324 87.6084 -541.82 -40.0545 -80.7472 78.1991 -255.964 649.002
5204 2 -11.2763 -55.1757 -9.41423 -520.718 493.297 -338.244 -8.94383 -20.3414 -280.192 -254.407 1055.22
5205 2 -12.8518 -53.6488 -10.9597 -406.331 -712.917 -503.109 -39.1421 36.6765 -68.5976 -252.419 310.546
5206 2 -12.7611 -56.7594 -7.8838 -282.208 -619.96 -344.18 -12.3797 -270.541 -46.1733 -245.794 568.699
5208 2 -11.1566 -52.2287 -9.49059 -550.193 221.244 -500.703 28.1471 24.2286 109.885 -254.654 774.434
5303 2 -13.7875 -52.205 -12.9158 -630.128 82.2902 -464.364 62.0093 -57.0385 -112.932 -258.313 690.276
5212 1 -14.2227 -56.6087 -7.17546 907.619 1196.66 949.607 142.827 -95.6673 63.6126 -822.324 417.095
2798 1 -16.7942 -50.8056 -9.04879 1010.8 950.093 915.309 64.6423 -82.8876 100.539 -824.022 265.476
7697 2 -10.1782 -56.5605 -7.46581 -677.833 -672.623 -357.035 13.211 175.914 -32.6821 -246.834 444.784
5221 1 -13.9576 -53.7456 1.82116 877.63 1401.38 913.686 2.75746 55.2957 -49.3607 -826.642 522.718
2806 2 -17.7706 -50.7035 -7.71235 -511.332 -645.481 -299.316 -42.7663 -133.295 -13.8735 -246.408 388.272
7601 2 -10.1519 -62.3529 -7.62938 -462.235 -691.242 -436.221 -92.2922 107.23 -35.119 -247.786 350.467
5308 1 -14.2553 -50.911 -7.25345 932.197 1439.72 993.296 -152.748 -111.117 81.5537 -815.953 597.737
5106 2 -10.3392 -59.5591 -11.3774 -254.122 -789.352 -233.821 -7.78223 -237.434 -41.112 -232.515 687.115
29 2 -25.7001 -68.0233 -0.329408 -419.251 -640.524 -292.159 -20.8711 122.583 -13.6099 -252.057 374.404
5010 2 -10.0662 -65.2167 -11.3084 -440.81 -681.533 -140.15 91.7412 -155.654 -163.061 -245.411 631.205
2524 1 -18.9283 -67.9817 -6.74079 988.347 1173.13 903.931 13.9492 123.149 18.0542 -821.185 322.38
25 1 -24.4584 -65.132 -5.4858 588.846 1222.86 924.262 -70.8479 -83.0042 -19.6251 -817.567 581.98
26 1 -22.0321 -68.0244 -2.07433 809.575 1190.89 876.548 17.4448 -143.513 -37.182 -817.367 437.263
27 1 -21.9314 -65.1609 -3.68225 797.018 1164.05 1044.58 11.3763 40.5748 7.33692 -815.484 332.599
30 2 -20.4871 -65.1722 -4.345 -207.023 -580.308 -378.802 12.3838 -196.119 1.29782 -255.159 469.66
31 2 -24.5486 -66.5341 -6.39822 -540.763 231.674 -404.378 -26.1875 -17.5619 193.698 -257.942 790.854
32 2 -22.1202 -66.5978 -2.87398 -515.334 166.082 -401.432 67.9528 -59.1251 -163.255 -259.993 709.917
33 2 -23.0641 -65.107 -4.84126 -758.396 -623.835 -463.952 -16.0311 94.9168 -17.8746 -253.839 306.497
34 2 -23.1326 -68.1216 -0.87321 -426.832 -599.386 -126.897 13.4004 -147.655 18.0038 -256.794 488.27
36 2 -22.0332 -63.7663 -2.8073 -532.801 217.656 -538.083 0.943165 -4.56473 111.905 -257.24 777.696
131 2 -24.6656 -63.7069 -6.3781 -408.711 394.935 -392.85 97.2164 -57.4426 -263.465 -250.828 938.001
2521 1 -19.0479 -65.1546 -5.16654 1057.2 981.83 899.372 -6.10802 -87.3904 -24.1756 -826.282 208.496
2525 2 -20.645 -68.0009 -1.34327 -530.032 -677.713 -342.681 52.272 133.738 111.392 -250.568 428.553
2527 2 -18.8527 -66.5609 -5.92484 -537.399 11.8692 -539.202 -104.61 -91.8043 42.8349 -256.376 605.233
2627 2 -18.9358 -63.769 -5.99118 -576.904 151.786 -510.134 148.302 -108.04 -66.4866 -252.567 775.276
2536 1 -19.4689 -67.9277 -0.206687 885.531 1205.14 932.019 73.9447 95.1303 9.46682 -823.911 365.068
2531 2 -19.0035 -69.3779 -5.92173 -474.407 100.195 -433.174 56.6114 -30.1022 -187.915 -259.286 653.027
2529 2 -17.7795 -65.1233 -4.18374 -542.596 -705.06 -523.625 -49.0612 78.4126 -103.215 -241.429 295.741
2530 2 -18.0176 -67.9812 -0.905049 -395.669 -728.928 -488.927 5.42674 -125.305 -28.4385 -245.616 371.884
2522 1 -16.5782 -67.936 -1.5908 751.954 1203.35 1041.02 1.49424 -36.7793 108.296 -823.621 442.815
2523 1 -16.4978 -65.2411 -3.23717 828.973 932.925 895.314 -47.0834 -18.1607 176.717 -830.122 331.115
2526 2 -15.3079 -65.3241 -4.34076 -660.664 -666.089 -276.442 17.6566 -114.996 9.3377 -245.121 436.589
2528 2 -16.4493 -66.5348 -2.38 -487.297 -252.343 -622.579 -49.7725 97.9743 42.8932 -265.841 383.455
2532 2 -16.4136 -63.7691 -2.49975 -448.279 303.062 -541.025 -27.6098 -90.5657 156.415 -250.312 862.026
5017 1 -14.2723 -65.2167 -5.5369 995.88 1474.63 891.324 -32.5824 2.21132 -9.48208 -821.961 541.901
5018 1 -11.7824 -68.052 -2.13456 1136.91 1229.96 1069.94 -11.3585 -3.44003 8.38455 -820.524 141.452
5019 1 -11.6911 -65.0936 -3.66512 793.793 1414.7 993.441 15.2383 86.8648 13.1249 -823.442 570.322
5023 2 -14.3078 -66.6821 -6.39085 -454.006 299.711 -348.194 9.97443 18.1608 270.294 -257.936 848.527
5024 2 -11.9151 -66.6239 -2.97935 -519.738 404.217 -389.218 23.0813 22.2288 -223.64 -251.891 950.4
5025 2 -12.8251 -65.0092 -4.84292 -359.276 -663.842 -257.059 67.8153 270.083 53.389 -244.92 612.799
5026 2 -12.8929 -68.0971 -0.953945 -278.729 -553.431 -195.339 -4.90518 -199.582 -11.4602 -259.778 474.645
5028 2 -11.7369 -63.6253 -2.91011 -595.613 373.275 -587.658 -12.0553 -5.29256 33.6427 -254.585 966.962
5123 2 -14.5161 -63.7242 -6.33488 -572.322 419.013 -462.592 14.9818 -16.7828 -223.791 -247.398 1018.71
5021 2 -15.4682 -68.1126 -0.443401 -236.79 -582.784 -364.311 -85.4532 237.092 -114.554 -246.735 567.242
5228 2 -11.3793 -55.1045 4.68014 -563.75 235.25 -573.123 0.635111 -3.05961 -20.0524 -252.456 804.496
5027 2 -14.6253 -69.4775 -6.50831 -549.245 18.8983 -498.6 0.0668275 66.8629 -137.269 -252.392 605.408
7428 2 -11.9095 -69.437 -3.03975 -515.275 446.529 -346.584 4.34578 51.2052 322.686 -247.355 1054.31
4932 2 -16.4201 -69.375 -2.47555 -531.238 240.106 -500.305 -114.641 -63.3578 166.64 -248.967 840.741
2736 2 -16.7567 -52.2747 3.98452 -517.591 -82.9462 -608.762 -82.4805 -115.145 28.0937 -256.566 547.181
2620 1 -18.9587 -62.2623 -6.69598 1013.29 1170.34 703.17 -86.715 56.6089 -50.5272 -830.055 457.577
122 1 -21.9211 -62.3216 -2.04938 906.672 1155.44 962.248 22.0801 -28.2026 -59.098 -822.175 255.882
127 2 -24.6308 -60.7993 -6.4186 -560.633 211.725 -506.578 -46.4988 7.53711 116.527 -254.985 777.883
128 2 -21.9931 -60.9069 -2.85857 -510.447 161.588 -546.636 1.28474 -21.2716 -76.8061 -261.94 704.501
130 2 -22.9678 -62.3819 -0.803292 -648.166 -681.75 -196.575 26.9646 -107.186 -49.9525 -245.45 514.161
2621 2 -20.518 -62.3511 -1.24756 -411.809 -702.64 -282.448 8.39576 254.282 43.3637 -244.032 582.039
2623 2 -18.8236 -60.9083 -5.8815 -581.143 228.622 -421.288 -35.0165 -64.8373 145.229 -256.057 794.602
2632 1 -19.3173 -62.2849 -0.140869 1021.86 1379.34 856.696 18.2735 107.45 120.107 -820.733 541.318
227 2 -24.6589 -57.9568 -6.34203 -379.79 423.106 -325.948 90.6875 -74.6533 -332.589 -256.942 988.711
121 1 -24.5447 -59.4413 -5.50924 941.818 1207.8 905.203 -43.2912 100.461 -54.702 -819.048 355.957
123 1 -21.954 -59.4828 -3.64032 804.5 1133.77 1072.89 -30.2256 -12.7616 179.514 -820.473 438.16
126 2 -20.5317 -59.4769 -4.39902 -96.8309 -598.827 -437.963 -55.1753 -246.118 -11.1169 -249.361 623.178
129 2 -23.1112 -59.5091 -4.74568 -461.998 -554.63 -337.552 -14.0507 193.538 -28.5405 -252.431 388.59
132 2 -22.0152 -58.0293 -2.79788 -511.253 362.075 -454.224 105.119 50.8506 102.294 -258.284 887.947