ITEM: TIMESTEP
1560000
ITEM: NUMBER OF ATOMS
29952
ITEM: BOX BOUNDS pp pp pp
-2.5615833775063237e+01 3.5601128117061187e+01
-1.1331095934809237e+02 1.2329625368229111e+02
-2.1035324467156940e+01 3.4903177627851115e+01
ITEM: ATOMS id type x y z v_StrAtomXX v_StrAtomYY v_StrAtomZZ v_StrAtomXY v_StrAtomXZ v_StrAtomYZ c_PEAtom v_VMS
2400 2 -19.4664 -68.8722 -18.6514 170.151 -405.651 -289.852 -173.931 467.168 -90.7345 -279.138 1023.95
4906 2 -18.3796 -69.6397 -14.1363 28.6274 -412.369 -944.068 -267.71 25.7807 56.8156 -263.374 968.681
4896 2 -16.0777 -72.3071 -18.2121 -356.091 136.139 -511.356 -47.5867 21.8832 33.3492 -167.301 595.307
7392 2 -11.9475 -72.1013 -15.2096 540.554 -153.258 -869.435 -85.4157 246.751 43.9008 -259.167 1304.42
4982 1 -15.9699 -71.1116 -17.2787 988.67 669.268 1466.82 176.785 33.425 -114.349 -811.367 787.216
7478 1 -10.5997 -71.1422 -15.1677 697.807 270.212 2108.17 120.364 -125.667 143.503 -728.636 1711.04
4812 2 -16.7591 -71.0587 -15.8508 -461.05 -362.209 -742.269 -136.504 -55.7483 22.3638 -269.258 428.222
7396 1 -13.1679 -71.007 -15.6253 590.699 258.66 2028.87 -133.479 -23.2199 -156.368 -738.706 1668.7
7481 2 -14.3514 -70.9353 -16.7286 354.678 -158.362 -745.523 -171.547 494.371 -184.671 -269.084 1353.89
4990 2 -16.796 -69.6967 -17.8657 83.5048 -326.967 -575.6 -398.966 285.893 -246.771 -263.416 1112.55
7486 2 -11.7774 -70.0884 -16.0343 92.2874 -127.957 -1039.34 -135.187 135.322 -62.7723 -306.679 1096.11
4898 1 -17.1373 -69.7776 -15.0866 359.326 795.581 1232.89 376.199 41.1422 -51.6346 -734.676 1004.98
7399 2 -13.8288 -70.3059 -14.3504 -425.331 -256.181 -791.543 -140.068 -224.027 210.774 -271.164 753.237
7589 2 -10.4828 -58.5007 -14.5712 -180.055 -639.597 -561.542 25.254 14.7786 99.3149 -255.838 462.126
4904 2 -18.3422 -68.7701 -16.1437 -71.8787 -459.128 -370.361 -436.52 140.442 -72.0664 -304.273 877.421
4901 2 -20.8897 -68.9897 -15.3059 102.543 -434.832 -638.148 -200.905 88.8588 -212.372 -284.842 848.203
4912 1 -19.4574 -68.6258 -14.8457 349.806 823.815 1114.81 284.17 2.51098 -13.9281 -749.409 830.754
2316 2 -21.8005 -68.5656 -17.6698 -470.641 -514.785 -89.7031 81.6041 -251.301 -97.4762 -271.649 633.891
2494 2 -21.8555 -68.5009 -20.4331 18.9722 -450.176 125.499 39.3074 678.059 -74.9613 -264.826 1297
2410 2 -23.7214 -68.1911 -15.6493 353.662 -502.067 -667.033 -261.072 -224.856 -125.087 -277.521 1141.82
2486 1 -20.9654 -68.1911 -19.0311 1151.8 736.246 1096.83 -55.8357 -51.0581 18.2439 -773.585 413.565
2402 1 -22.137 -68.2341 -16.1177 781.129 1030.1 1276.07 -32.5753 136.429 303.638 -762.835 720.653
2416 1 -25.1713 -68.019 -14.95 482.895 936.588 1233.43 -168.729 -124.58 2.88515 -759.24 748.746
2407 2 -23.7071 -66.8189 -20.3058 -354.353 -503.739 -307.473 -166.637 -269.281 128.843 -264.449 618.191
4985 2 -20.6212 -66.6584 -19.0593 -614.712 -321.499 -510.105 41.0184 -8.53291 -99.3659 -281.037 318.011
2408 2 -21.814 -66.5972 -16.0342 -503.007 -99.5895 -684.526 -105.297 -66.0856 -117.728 -272.038 597.383
2401 1 -24.4951 -65.9468 -19.1971 765.167 1161 816.218 -46.8936 211.745 9.92143 -787.39 529.604
2409 2 -23.3788 -65.9329 -17.9553 -258.733 -592.532 -448.064 -38.1615 180.294 -128.017 -268.984 484.893
2403 1 -22.3858 -65.345 -16.833 794.569 475.888 937.491 209.849 193.083 -121.562 -779.817 675.142
4897 1 -20.2461 -65.0707 -18.8636 848.115 807.08 886.846 -54.6881 148.142 495.597 -774.203 903.567
4905 2 -18.65 -65.0866 -18.5118 -27.9496 -510.421 -615.888 -1.56542 15.9365 -129.418 -271.762 588.051
2406 2 -21.1796 -64.6113 -17.6111 -308.216 -499.539 -418.366 -57.5546 -226.179 -57.5803 -273.942 448.351
2507 2 -20.4157 -64.1769 -20.12 -628.442 -407.814 -520.529 95.3943 -83.9485 -89.2427 -278.481 329.922
11 2 -24.6411 -64.4509 -19.889 -449.474 -333.528 -436.113 -29.4822 111.735 -140.124 -271.775 333.224
2412 2 -23.0862 -64.2986 -15.9341 -605.07 -343.99 -722.756 56.4675 69.3507 -14.3293 -272.379 370.605
2506 2 -18.4206 -63.4073 -15.614 -43.5255 -426.987 -464.582 -6.1529 -196.827 56.3947 -261.685 537.354
2501 2 -21.0088 -63.0679 -14.9639 -285.224 -411.302 -763.293 -86.7462 6.73115 -17.5041 -260.837 455.852
2 1 -22.5512 -62.8802 -15.38 927.712 700.973 1169.59 118.508 53.9356 -220.328 -799.012 601.041
7 2 -23.8939 -62.0367 -20.5159 -548.646 -608.561 -636.427 -75.9929 -20.2209 13.7901 -255.869 158.612
2503 2 -19.6188 -61.6982 -20.2627 -514.616 -394.277 -301.68 66.799 -18.0454 167.066 -265.972 363.724
8 2 -22.4862 -61.683 -16.5176 -460.925 -17.5818 -372.822 192.473 -158.976 -209.543 -260.424 695.656
2512 1 -19.5269 -63.3566 -14.4266 752.368 770.789 1127.95 -68.8932 19.9087 -92.1432 -814.547 418.787
4900 1 -18.0689 -68.7254 -17.8395 1049.01 725.746 1118.63 304.37 -93.4707 416.136 -756.232 977.494
7397 2 -15.8324 -68.8939 -14.7867 133.889 -459.982 -699.134 243.477 103.548 -41.8381 -284.028 875.878
7394 1 -11.7362 -68.3559 -15.8547 620.495 475.879 1434.35 -37.246 -165.485 340.68 -739.752 1111.52
7402 2 -13.0901 -68.1501 -15.0472 70.2751 -485.137 -995.956 7.90224 46.9551 58.6239 -285.187 932.869
4903 2 -17.3967 -67.2371 -18.0416 -397.432 -403.175 -627.242 276.789 -20.7115 -88.3737 -272.985 553.244
7400 2 -12.0262 -67.5759 -17.2478 -540.875 -206.349 -494.571 -112.332 289.653 -390.186 -270.272 919.156
7401 2 -13.8604 -66.5533 -18.9632 -252.978 -515.674 -79.7588 87.2332 393.363 -188.456 -270.302 859.125
7395 1 -12.4533 -66.3534 -18.1841 913.139 936.421 777.453 -18.3007 -95.7853 620.418 -788.537 1097.91
7398 2 -11.2756 -66.3335 -19.2874 -286.143 -620.27 -425.112 -69.821 -178.928 -115.306 -273.314 484.847
7393 1 -14.8374 -65.8897 -20.1374 576.376 744.586 1103.27 -88.0499 235.544 338.189 -764.484 866.083
4899 1 -17.19 -65.6919 -18.1426 673.933 629.913 1042.57 -265.872 151.571 162.944 -789.147 717.425
4902 2 -16.0734 -65.4673 -19.2704 -472.144 -626.786 -661.045 69.4286 -158.23 -100.62 -269.132 387.724
4908 2 -16.6951 -64.9399 -16.8073 -491.677 -241.62 -444.829 139.197 47.878 82.1138 -270.031 371.807
7404 2 -12.453 -65.0381 -17.2094 -425.685 -184.637 -92.627 47.9321 31.2821 223.141 -273.87 497.948
5003 2 -14.0557 -64.6292 -20.6445 -424.01 -435.959 -669.827 -1.60711 -3.00701 -40.8147 -292.01 250.328
4997 2 -15.9112 -63.5897 -14.6359 -299.585 -570.601 -514.691 28.9414 163.931 38.569 -258.613 386.029
5002 2 -13.3596 -63.7986 -14.8322 -260.91 -422.736 -159.471 -75.4279 -303.256 194.068 -258.112 677.377
7493 2 -10.7696 -64.0382 -15.3774 -146.518 -387.525 -564.314 162.348 294.444 45.338 -256.261 690.852
4994 1 -12.2206 -63.867 -16.0668 1002.96 714.922 1424.25 -145.995 -130.469 107.677 -799.428 729.103
2498 1 -16.8006 -63.5847 -15.9435 1010.77 793.535 832.699 -47.1266 15.818 47.9422 -799.818 233.511
2504 2 -16.3316 -62.3018 -16.772 -508.526 -371.831 -701.564 57.5428 -75.5675 28.6098 -265.693 334.45
5000 2 -12.2539 -62.4233 -16.8033 -401.693 -93.372 -570.45 143.165 19.8478 -131.781 -268.605 538.833
4999 2 -13.5302 -62.0451 -20.1334 -463.116 -300.988 -649.67 -9.45088 -59.5623 125.241 -283.317 386.394
7408 1 -14.3128 -68.7689 -14.2102 481.942 658.155 1198.55 76.6966 209.124 -263.604 -774.297 880.69
2500 1 -19.7653 -63.0636 -21.0827 682.972 891.368 754.827 -130.911 10.7391 35.3614 -784.093 298.543
9 2 -22.9298 -60.4242 -18.7086 -500.804 -492.019 -690.343 -43.2166 3.28967 51.6133 -259.965 226.483
1 1 -24.1127 -60.6633 -19.7032 905.033 623.279 1027.5 79.687 -163.499 -5.06975 -818.317 477.717
6 2 -20.4805 -60.5846 -17.9956 -294.061 -427.149 -597.933 -53.3648 -173.811 90.5564 -265.172 439.755
2497 1 -19.2748 -60.6591 -19.0359 642.015 711.496 1129.4 2.58903 -65.504 -13.6076 -804.94 471.119
3 1 -21.9725 -60.4028 -17.4274 871.136 850.986 934.33 104.439 13.0789 -210.231 -812.556 414.124
107 2 -24.1283 -59.5217 -20.8339 -553.105 -610.309 -478.948 0.6203 -12.3965 -191.625 -251.069 351.62
2603 2 -19.2533 -59.2253 -19.7654 -520.648 -502.038 -537.158 -67.6167 83.9485 -92.5795 -258.685 247.986
12 2 -22.1338 -59.1129 -16.5365 -575.925 -451.899 -437.827 -85.708 -95.6358 152.799 -260.324 369.925
98 1 -22.1694 -58.3544 -15.1051 1007.49 849.194 1075.79 7.64782 26.9248 -185.555 -814.928 382.329
2596 1 -19.4958 -57.935 -20.6628 835.919 686.464 938.77 39.9482 7.63229 -108.505 -816.771 297.606
103 2 -24.5315 -57.1491 -20.1006 -620.975 -515.878 -404.668 35.4336 121.435 36.2192 -258.128 295.029
104 2 -22.6 -56.8106 -15.4622 -498.28 -199.579 -605.773 -98.4021 139.724 -125.149 -256.116 517.194
2599 2 -19.8967 -56.7758 -19.6444 -556.42 -429.416 -373.142 7.41115 13.7232 199.374 -256.044 382.653
105 2 -23.6058 -56.087 -17.817 -528.554 -565.712 -414.311 -15.9121 13.9553 37.8669 -261.36 155.958
2601 2 -18.372 -56.1957 -17.6149 -598.526 -465.796 -628.139 -2.57378 6.67644 89.5815 -273.714 215.992
2593 1 -19.764 -55.8887 -18.2674 609.476 1011.21 1116.11 167.24 -54.0986 -87.5737 -803.496 574.659
97 1 -24.6373 -56.0058 -19.0333 977.814 1000.12 755.394 119.61 5.32395 -220.254 -821.917 493.426
102 2 -21.0321 -56.2012 -17.3287 -143.729 -478.11 -562.214 -67.9683 -144.135 60.2962 -258.116 483.837
99 1 -22.5141 -55.8217 -16.7032 868.748 733.807 962.3 -76.9156 -48.6785 -33.077 -815.403 260.238
203 2 -24.4911 -54.5385 -19.7705 -565.117 -86.7421 -457.567 -33.9573 -6.65288 -162.946 -251.561 521.734
5130 2 -10.5613 -55.3286 1.75571 -383.614 -627.885 -552.387 -19.1076 -75.6642 19.6782 -243.62 257.602
108 2 -22.5574 -54.297 -16.2791 -491.737 -438.545 -568.93 -41.1524 -44.9193 94.4899 -259.464 225.417
2597 2 -20.6852 -58.5342 -14.4982 -230.093 -443.866 -578.292 -62.9282 151.507 60.2431 -250.675 429.112
2602 2 -18.1178 -58.8748 -14.7229 -543.443 -462.965 -459.374 39.4269 -103.784 40.4828 -255.362 220.617
2505 2 -17.8902 -61.1053 -18.4708 -551.657 -413.062 -665.178 -5.83484 -4.52459 27.8419 -268.361 224.316
5231 2 -14.7236 -54.3496 0.672766 -641.134 -855.253 -577.532 -103.943 100.228 49.7919 -235.829 365.373
4998 2 -10.4364 -60.5441 -17.5717 -341.366 -413.255 -510.542 126.323 -121.984 -1.56292 -272.567 337.856
2499 1 -16.5433 -60.9982 -17.6248 626.374 633.972 1134.94 -0.00282585 24.8086 30.5909 -805.316 509.398
2502 2 -15.3615 -60.8513 -18.7212 -368.762 -422.506 -479.148 34.6063 -216.418 24.3332 -267.132 393.726
4995 1 -11.9334 -60.8588 -17.0506 845.891 869.958 925.552 -14.7935 -44.9857 -119.645 -797.433 233.839
4993 1 -13.9278 -60.6477 -19.426 853.043 662.813 1056.09 -54.7841 -60.5406 -198.526 -787.083 504.26
5001 2 -12.8594 -60.3605 -18.2767 -384.718 -534.148 -478.544 -45.1254 119.322 -22.2127 -267.571 259.643
2508 2 -16.6119 -59.7276 -16.6516 -498.62 -375.364 -538.826 -26.4132 -6.59131 170.059 -260.275 332.788
5004 2 -12.2509 -59.9735 -15.755 -574.335 -286.234 -500.095 -16.2499 56.9267 232.12 -258.6 489.16
5099 2 -13.9318 -59.4861 -20.5597 -444.002 -196.668 -527.166 54.8271 -27.5667 -112.541 -269.549 371.422
2594 1 -16.7128 -58.66 -15.451 900.778 747.378 778.839 131.987 -52.9318 -125.312 -820.495 357.032
5090 1 -12.066 -58.6452 -14.8499 874.242 1059.97 913.097 54.9789 -14.5373 -259.819 -817.421 490.927
2600 2 -16.5331 -57.2111 -16.0838 -519.644 -362.582 -562.349 -32.582 -27.3628 -55.5623 -260.23 218.843
5096 2 -12.4739 -57.3093 -15.698 -523.932 -97.7787 -317.721 17.7272 -43.466 -141.026 -258.145 450.031
5095 2 -13.7845 -56.9559 -19.9618 -549.23 -496.98 -628.446 -119.988 -134.703 23.5711 -263.348 335.316
2598 2 -15.9231 -56.4798 -18.4926 -174.079 -454.629 -534.512 18.3821 -195.039 -5.27032 -259.931 471.93
2595 1 -16.8678 -56.1272 -17.2226 573.752 741.08 1146.5 66.3846 55.3986 -34.8814 -801.246 535.053
5097 2 -13.4945 -55.8933 -17.6344 -311.413 -591.418 -693.464 -14.1527 88.2912 88.8539 -260.858 406.278
5091 1 -12.278 -55.9548 -16.6067 928.123 963.792 1025.12 98.3769 -112.711 -133.295 -818.227 357.307
5094 2 -10.8545 -55.8808 -17.3834 -147.619 -474.567 -506.611 107.761 -142.896 -59.4887 -263.35 474.458
5089 1 -14.4308 -55.9654 -18.906 828.587 1001.45 882 155.334 -3.30948 -181.521 -808.759 441.328
2604 2 -16.3993 -54.6286 -16.8365 -493.393 -349.513 -658.703 101.394 37.3548 5.90542 -265.801 327.026
5100 2 -12.2402 -54.5859 -15.7409 -652.852 -75.9861 -579.374 -12.5704 52 91.0835 -249.027 573.812
5093 2 -15.5557 -58.8919 -14.4064 -490.404 -584.023 -591.389 -0.676784 49.9038 162.956 -251.843 310.877
2699 2 -19.7744 -54.3357 -18.8109 -466.776 -360.733 -585.988 -42.379 35.2855 -92.0638 -260.892 269.534
5195 2 -14.3798 -54.4795 -19.6201 -521.283 -83.0497 -463.177 193.522 -113.066 -194.542 -254.133 658.942
4913 2 -20.8738 -69.0165 -7.60529 -197.61 -771.015 -164.998 161.274 271.74 45.9185 -239.794 808.973
7409 2 -15.9802 -69.1405 -7.84375 105.176 -767.022 -513.573 -186.396 17.7226 -45.3645 -239.289 845.728
10 2 -23.5273 -62.6142 -14.1377 -467.142 -539.624 -491.696 -46.9567 -148.66 -85.0781 -257.72 314.175
19 2 -25.25 -62.2274 -12.2963 -691.725 -486.281 -484.773 -72.8536 6.81278 99.3843 -247.997 297.007
2422 2 -23.5321 -68.136 -8.00229 0.378424 -386.529 -625.267 -94.381 -150.311 -17.0002 -262.028 628.039
2414 1 -21.9563 -68.0159 -8.25756 739.801 1098.59 626.151 -134.971 -110.849 149.245 -810.155 583.745
2328 2 -21.767 -67.5766 -9.76371 -647.959 -494.414 -351.921 -27.6463 -2.90341 -312.142 -251.056 600.313
4915 2 -19.3906 -67.2755 -14.0425 -540.806 -409.083 -235.204 36.7191 -31.0076 312.898 -274.55 609.207
2419 2 -24.8609 -67.1362 -13.6645 -432.434 -579.697 -251.873 116.051 205.367 56.2294 -274.01 507.241
2421 2 -23.113 -66.3244 -11.8087 -411.296 -508.077 -224.882 58.3523 230.557 17.4821 -258.443 482.452
2418 2 -20.5934 -66.4001 -11.8519 -646.511 -496.456 -301.231 20.5053 -198.335 13.6652 -261.645 457.991
2415 1 -21.7928 -66.3476 -10.8313 930.674 1220.09 798.979 -51.8913 234.177 127.836 -818.508 600.697
2413 1 -24.5559 -66.1536 -12.455 1046.64 755.256 841.338 -68.2726 -166.988 -68.5005 -823.986 423.02
4909 1 -19.3529 -66.1431 -12.8449 1008.64 876.181 927.224 96.4487 80.9485 -126.932 -804.642 330.589
2424 2 -21.7273 -65.0645 -9.78819 -541.981 -425.719 -88.6087 59.008 92.4097 347.129 -247.555 750.942
2519 2 -19.3727 -64.7364 -13.616 -458.856 -419.112 -448.673 -17.2306 6.62761 -154.701 -264.336 272.21
23 2 -24.7467 -64.7054 -13.0597 -612.162 -526.748 -689.217 -54.5574 2.65446 39.8454 -250.017 183.107
22 2 -23.2363 -64.4172 -7.83778 -440.53 -541.605 -669.488 5.53038 -47.0265 38.5133 -245.166 225.105
14 1 -21.7686 -64.1013 -8.46073 1123.14 1037.31 1027.29 193.052 204.291 -75.8348 -845.565 512.437
16 1 -24.8832 -63.1919 -13.54 913.711 836.6 951.83 114.693 98.6138 -76.4408 -827.409 310.654
20 2 -21.7464 -62.6034 -9.05306 -686.687 -296.785 -627.252 -30.298 -180.4 -51.7392 -243.282 490.713
2515 2 -19.3634 -62.1959 -13.3407 -614.907 -477.814 -250.963 -70.8387 -172.266 211.72 -252.408 583.02
2420 2 -21.1994 -66.9012 -7.37636 -116.97 -833.4 -461.353 -31.4527 112.429 -168.707 -233.314 715.136
4918 2 -18.5196 -67.8437 -7.41513 -240.33 -388.52 -788.117 -91.186 -148.286 -74.0377 -271.527 590.093
4917 2 -18.0492 -66.2727 -11.8871 -560.582 -558.059 -274.423 -35.8264 135.32 82.7015 -257.343 400.593
2513 2 -20.6322 -64.0794 -7.31811 -415.346 -736.427 -101.934 -30.3211 193.04 96.3506 -243.421 666.598
18 2 -20.9981 -61.5251 -11.2994 -378.705 -486.131 -332.398 -39.0166 -246.212 87.8449 -250.896 477.742
2428 1 -24.9486 -68.2463 -7.20264 863.726 1092.96 899.016 -116.191 -142.981 -93.1233 -812.11 416.592
9905 2 -10.5915 -69.005 -7.49847 -134.217 -953.518 -346.279 197.526 349.416 64.2998 -226.94 1018.92
27462 2 -25.5 -60.8411 -18.8905 -273.68 -404.687 -384.3 58.864 -237.459 -92.9822 -258.211 469.468
7414 2 -13.3216 -68.359 -8.05745 204.532 -365.829 -706.456 -3.54913 -82.402 -15.0117 -260.684 810.373
7406 1 -11.7128 -68.1059 -8.21164 737.461 1057.91 1044.73 -128.591 -191.848 -90.4538 -814.89 532.173
4910 1 -17.1593 -68.0121 -8.15908 655.047 1220.04 1092.95 35.4274 244.03 181.719 -795.003 738.27
7411 2 -14.385 -67.9246 -12.887 -584.635 33.862 -524.705 -77.3307 0.416691 276.825 -259.791 772.594
5008 1 -14.5491 -63.6931 -13.7379 1005.82 1034.36 991.79 -91.444 -27.927 -17.8327 -820.101 172.603
7320 2 -11.456 -67.5101 -9.70591 -630.414 -538.323 -493.197 74.2097 -136.476 -158.722 -243.627 403.298
4824 2 -17.4454 -67.7885 -9.7737 -642.119 -458.256 -63.9129 -62.7634 -4.55853 -252.838 -245.91 682.26
7405 1 -14.379 -66.4578 -12.0471 805.124 1245.82 802.266 66.7112 140.732 -163.996 -821.162 590.708
7413 2 -12.9308 -66.2805 -11.3932 -87.8796 -640.197 -443.19 129.939 69.9772 181.438 -242.603 631.789
7407 1 -11.4873 -66.1681 -10.5204 871.399 817.181 628.631 -94.0532 316.346 -122.117 -840.722 648.238
4914 2 -15.6528 -66.5046 -11.1477 -583.268 -695.453 -591.433 -34.9998 -53.5744 47.9209 -253.26 175.815
4911 1 -17.1306 -66.4349 -10.6045 785.426 1246.49 620.403 58.5315 134.636 131.495 -829.151 657.594
5015 2 -14.5006 -65.1022 -12.9594 -640.648 47.3557 -614.176 -1.64087 -7.80875 11.8985 -254.208 675.613
4920 2 -17.3455 -65.2338 -9.52129 -557.591 -314.666 -3.56624 113.974 -114.866 395.075 -248.516 882.143
7416 2 -11.5932 -64.9659 -9.55412 -590.162 -607.172 -722.672 64.5117 36.1494 57.0102 -244.796 204.329
5014 2 -13.0836 -64.066 -7.63526 -634.614 -656.99 -545.573 138.239 -144.434 24.4347 -230.617 363.492
2510 1 -17.1899 -64.1672 -8.20742 1278.54 931.82 1170.33 -142.364 204.895 3.56747 -835.907 530.275
5009 2 -15.6397 -64.0285 -7.62665 -439.568 -698.694 -421.151 75.753 168.11 131.757 -235.602 475.748
5006 1 -11.6716 -63.9069 -8.34383 823.945 1227.28 882.477 17.7415 -44.9379 -290.049 -852.926 633.947
5012 2 -11.4938 -62.3879 -9.06428 -463.719 -192.939 -353.372 73.5112 -92.1085 -177.371 -244.592 437.794
5011 2 -14.5545 -62.3544 -12.7763 -643.384 51.9338 -361.382 -73.4689 -87.1524 332.879 -253.634 859.253
2516 2 -17.5607 -62.7452 -8.84209 -656.034 -320.724 -693.329 58.37 -19.6612 29.4184 -250.38 374.575
2514 2 -15.9092 -61.7564 -10.6105 -280.03 -496.029 -327.679 59.6622 -285.474 75.8786 -244.785 557.738
4916 2 -15.8955 -66.9676 -7.83587 124.269 -735.871 -688.442 -53.8126 -128.076 41.0041 -224.684 874.206
7412 2 -11.0253 -66.965 -7.30594 -133.02 -1089.85 -655.771 188.718 187.923 20.8835 -220.872 950.107
5013 2 -13.219 -61.3327 -10.8002 -189.156 -534.823 -564.708 -30.1799 218.887 -25.1074 -245.526 528.268
5010 2 -10.8449 -61.7592 -11.6517 -498.781 -418.278 -300.974 77.6003 -160.941 75.2113 -247.472 377.394
5005 1 -14.6755 -61.2892 -11.5467 1109.36 1075.41 1070.74 -85.2148 45.8355 -106.458 -831.08 251.833
7420 1 -14.7791 -68.1939 -7.41299 444.309 1266.49 967.771 -192.472 11.6229 -74.8198 -816.114 804.954
5029 1 -14.4397 -60.7218 2.67778 895.783 1286.63 937.647 -34.8839 -26.6893 -101.989 -857.993 418.504
106 2 -23.2696 -58.9102 -14.0676 -454.653 -458.019 -332.236 -12.4987 -231.24 130.759 -255.819 477.062
2517 2 -18.4296 -61.4637 -10.8884 -503.731 -580.373 -345.88 27.1599 148.426 122.017 -246.599 394.788
21 2 -23.5456 -61.4868 -10.5047 -380.495 -601.867 -521.426 50.6674 41.8959 101.025 -243.731 285.051
15 1 -21.9935 -61.3626 -10.0104 1111 880.101 1017.7 89.0869 99.43 -8.61996 -838.21 306.866
2509 1 -19.5837 -61.2725 -12.0137 1155.02 963.989 976.377 32.958 76.2389 -144.003 -827.802 342.323
13 1 -24.8953 -61.121 -11.2519 1034.55 865.48 797.085 81.4185 -34.377 -140.529 -847.751 357.077
2615 2 -19.4244 -59.743 -12.6134 -533.045 -165.199 -587.852 124.319 -100.692 -126.109 -250.16 531.948
24 2 -21.7366 -59.8817 -9.42158 -609.59 -155.14 -513.41 37.0942 -24.786 95.3281 -248.813 453.1
119 2 -24.6497 -59.7106 -11.9549 -564.922 -455.19 -487.576 19.7517 -19.2801 -22.5634 -246.388 115.538
2711 2 -19.1116 -54.5801 -13.7051 -560.066 -665.502 -424.946 -37.992 -16.6275 -3.1115 -257.331 220.929
112 1 -24.5573 -58.6184 -13.1343 937.296 816.046 1042.89 -67.2681 63.296 -40.3048 -833.5 262.909
2608 1 -19.2747 -58.5621 -13.6566 871.297 736.383 1121.44 -8.06141 139.398 -77.022 -828.612 436.815
124 1 -24.6027 -58.3495 -7.50017 837.906 1141.52 912.466 97.7452 179.039 43.2589 -845.379 453.368
110 1 -21.82 -58.3343 -8.95531 1077.98 904.916 955.533 35.228 35.3339 -60.3983 -841.095 205.343
2609 2 -20.7373 -58.0992 -7.80727 -338.826 -598.954 -289.194 -40.1132 204.826 1.6367 -243.073 462.317
118 2 -23.3426 -58.1668 -8.43268 -320.28 -646.177 -594.242 -12.9642 -84.3578 -8.51245 -245.428 337.715
2614 2 -18.1723 -58.055 -7.55723 -570.109 -648.892 -405.433 -4.26803 -157.161 96.4941 -245.955 385.208
116 2 -21.5566 -57.2964 -10.1724 -547.912 -317.777 -395.785 -32.1728 -49.8042 -140.763 -251.459 333.293
115 2 -24.6059 -57.1613 -12.4853 -481.669 -250.224 -540.148 -86.9648 -67.1756 172.263 -250.503 442.46
2611 2 -19.0676 -57.0805 -13.0933 -590.614 -496.084 -646.819 52.6335 -32.5886 58.6369 -254.311 198.04
111 1 -21.7136 -55.8049 -10.7461 933.434 977.672 946.161 -38.9436 228.028 -69.537 -826.847 420.241
2605 1 -19.2734 -55.638 -12.5178 861.721 731.798 780.34 21.4499 45.1453 -121.208 -825.767 253.966
114 2 -20.8215 -55.6056 -12.0344 -441.752 -561.61 -570.891 61.4441 -74.5449 58.66 -250.598 232.13
109 1 -24.6546 -55.6252 -11.9036 824.003 1031.75 1060.46 40.8022 60.5392 -37.9469 -834.409 265.061
117 2 -23.2528 -55.4444 -11.133 -213.059 -509.088 -508.012 -87.2273 144.736 16.9408 -252.065 416.952
120 2 -21.2196 -54.8149 -9.53595 -572.819 -451.749 -277.45 44.0617 46.0284 215.114 -248.395 465.986
2613 2 -18.3296 -55.3809 -11.3006 -435.927 -764.295 -602.794 -16.7852 -44.2614 27.2591 -252.762 299.713
131 2 -24.7174 -59.9615 -7.22807 -664.864 -115.015 -573.373 -90.0028 -96.2687 -85.7214 -242.826 578.401
215 2 -24.8103 -54.4948 -13.0189 -533.353 -383.708 -482.986 -59.5343 13.082 -83.2009 -253.12 222.051
5007 1 -11.7001 -61.3686 -10.2734 803.104 895.296 1357.66 -86.8545 49.3165 -44.3396 -834.508 548.393
2511 1 -17.3062 -61.5051 -9.75163 1088.82 963.178 937.804 -74.9088 -74.247 134.989 -836.958 328.108
7601 2 -10.5271 -57.9207 -8.1532 -533.956 -571.949 -307.784 29.2458 56.6057 116.495 -252.824 337.761
5111 2 -14.9663 -59.7436 -12.0591 -536.801 -102.154 -565.445 -25.9067 21.2105 -54.6501 -252.162 463.154
5016 2 -11.3742 -59.8597 -9.78452 -536.702 -233.736 -468.431 -32.3907 -55.2802 290.159 -252.13 583.658
2520 2 -17.2418 -59.9645 -9.10853 -581.558 72.0104 -522.312 -62.1145 -59.278 126.056 -246 679.505
5098 2 -13.0874 -58.8117 -13.6305 -222.889 -574.536 -574.634 35.1671 -136.737 9.18229 -254.851 428.654
5104 1 -14.612 -58.6228 -13.1241 896.373 696.988 1002.38 2.39835 -35.3188 -87.3877 -827.195 314.32
2606 1 -17.1376 -58.3991 -8.73895 780.116 881.425 1090.47 -159.326 36.1546 -125.738 -840.103 450.164
5116 1 -14.2177 -58.3371 -7.54569 786.392 1004.95 994.729 -69.0005 47.2477 -129.88 -842.16 342.382
5102 1 -11.5757 -58.3575 -9.23078 957.318 1034.49 798.247 13.2875 -66.4359 -194.575 -833.315 413.381
5110 2 -13.0815 -58.2302 -8.6772 -380.462 -640.347 -467.11 -59.0365 -63.881 137.073 -245.853 362.76
5105 2 -15.6646 -58.2022 -8.28453 -564.245 -621.105 -517.795 -60.778 117.866 6.16334 -245.106 246.79
5108 2 -11.4309 -57.252 -10.4394 -600.435 -372.289 -466.698 61.6644 -54.5945 -43.7514 -246.105 255.961
5107 2 -14.795 -57.1393 -12.6211 -525.37 -481.675 -705.36 24.1803 74.562 15.6629 -254.811 247.667
2612 2 -17.4978 -57.3641 -9.97021 -587.306 -169.64 -392.816 45.1443 34.353 -35.6671 -243.966 380.145
5103 1 -11.592 -55.7811 -11.019 612.487 1019.28 903.807 23.1052 -107.946 -137.525 -831.449 474.488
5101 1 -14.5776 -55.7043 -11.9876 688.238 929.582 1182.96 74.411 3.4961 -317.027 -825.01 708.356
5109 2 -13.0997 -55.6204 -11.4062 -540.091 -658.991 -604.614 -50.5244 -14.5024 64.7305 -252.077 177.448
2607 1 -17.1952 -55.7806 -10.2445 1064.84 1080.96 462.059 48.658 -20.9446 -94.5671 -830.688 639.194
2610 2 -15.7158 -55.6748 -10.8543 -334.308 -687.325 -463.635 49.1068 -77.7298 -93.6979 -250.168 383.914
5112 2 -11.3068 -54.6475 -9.94994 -600.852 -446.916 -315.382 -52.7507 -29.3159 165.487 -253.545 392.848
2616 2 -17.3009 -54.7938 -9.04869 -688.679 -318.519 -577.521 -19.1588 -40.7258 93.5874 -253.776 374.941
5207 2 -14.7887 -54.4836 -13.1072 -443.803 -422.747 -372.442 -54.0993 83.6393 -182.031 -252.771 364.973
5031 1 -11.5248 -61.0333 3.86655 928.842 895.201 993.648 -1.29157 -89.9516 7.77004 -870.269 178.806
7332 2 -11.9615 -69.7957 -1.81941 -513.636 -128.972 -357.853 36.6858 -43.839 -26.1398 -114.725 352.368
2518 2 -18.1297 -64.4018 -6.93565 -439.606 -409.81 -224.713 -4.02497 -355.698 238.898 -249.966 769.086
4924 1 -19.963 -67.9143 -6.76278 898.374 1171.83 751.76 -132.237 133.352 37.5513 -794.204 496.389
2431 2 -24.5904 -68.0703 -5.67056 -793.68 -239.857 -385.398 108.62 -13.6939 264.697 -239.841 702.46
4927 2 -19.7343 -67.5258 -5.25866 -704.755 -406.575 -258.954 130.418 16.4521 306.142 -252.498 698.376
2432 2 -22.9282 -67.1026 -1.15595 -557.557 -295.242 18.4454 152.817 -376.33 -260.97 -259.743 974.034
2433 2 -23.4778 -66.6621 -3.68945 -559.221 -720.503 -254.044 -71.6852 50.3764 71.4241 -242.112 454.641
2425 1 -24.6415 -66.6877 -4.78234 1338.13 1467.16 628.362 116.401 103.297 -390.657 -847.267 1068.88
4929 2 -18.3697 -66.7516 -3.09608 -91.6024 -510.088 -255.109 -17.0433 287.549 -15.3155 -239.134 618.925
2430 2 -20.9788 -66.5447 -3.07357 -568.689 -615.448 -293.294 81.1777 -359.229 37.9653 -246.68 708.615
4921 1 -19.6655 -66.4849 -3.99809 1083.52 1239.91 855.581 -141.686 176.626 -217.861 -841.304 638.956
2427 1 -22.4407 -66.2674 -2.53672 1134.08 1201.35 802.08 25.8565 208.236 -48.217 -839.48 525.5
35 2 -24.4795 -65.3444 -5.75509 -700.982 132.656 -151.09 -26.3351 -195.461 -334.619 -235.452 995.755
2531 2 -19.6677 -65.0439 -4.84623 -560.248 -318.705 -100.115 23.1292 -12.8902 -267.633 -247.43 613.114
2436 2 -22.5649 -64.6267 -2.37567 -666.408 -204.127 -554.916 -4.67778 -120.68 -83.1307 -244.918 488.96
28 1 -24.4949 -64.1389 -6.96316 896.09 1154.96 1017.48 109.512 198.844 -154.928 -850.916 526.239
2524 1 -19.5222 -64.0455 -6.09934 1331.05 1044.21 1152.58 -193.065 142.38 -6.54781 -838.821 485.494
26 1 -22.4265 -63.0734 -2.15756 1245.59 736.01 1081.85 -113.71 176.041 219.883 -851.545 692.711
2536 1 -19.5413 -63.1047 -0.80306 1001.61 856.834 914.956 -98.9459 30.7103 88.095 -851.272 267.219
2530 2 -18.2961 -62.9575 -1.78786 -418.122 -584.036 -523.636 22.7787 -97.6144 13.529 -243.325 227.697
2525 2 -20.9805 -62.7798 -1.43086 -216.336 -611.72 -555.46 100.573 31.4916 39.7499 -235.595 418.7
31 2 -24.4069 -62.6079 -6.37482 -602.982 29.7494 -463.212 -39.0654 -79.0335 81.5567 -248.058 612.143
34 2 -23.6955 -62.5947 -1.19814 -370.443 -600.129 -518.82 -10.3865 -204.385 11.3172 -229.907 408.312
2527 2 -19.6166 -62.4939 -5.50007 -553.108 145.728 -471.991 -96.0802 -150.335 300.35 -239.423 896.877
32 2 -22.5046 -62.1763 -3.4615 -679.643 -310.782 -579.929 -18.4849 -22.1531 -108.561 -239.975 383.503
2543 2 -19.663 -64.6305 -0.370168 -658.356 -500.91 -632.368 124.159 -48.8589 -64.9725 -241.931 295.712
40 1 -24.8695 -63.1977 -0.306353 1010.42 1093.23 760.581 17.9244 114.219 6.41423 -855.141 360.821
7426 2 -14.0625 -68.9166 -0.345754 67.4224 -461.418 -574.214 -107.211 -23.5462 -20.6022 -204.993 624.072
7418 1 -12.4141 -68.7936 -0.706402 1431.45 1113.97 1345.36 -122.258 -114.441 250.21 -942.423 593.984
7423 2 -14.5663 -67.7243 -5.93883 -665.363 -644.775 -596.95 196.237 -84.4219 324.67 -236.667 675.896
4928 2 -16.1611 -67.3765 -1.33008 -404.641 -445.294 -32.6789 -146.993 211.022 -313.052 -229.363 804.703
7424 2 -12.3667 -67.283 -1.37737 -605.522 -498.176 -413.571 113.358 23.8906 -315.486 -209.066 605.492
4926 2 -15.8335 -66.6358 -3.915 -494.026 -625.755 -302.793 132.808 -258.71 -28.6288 -234.265 579.034
4923 1 -16.7517 -66.527 -2.59908 1404.79 1191.25 1040.22 -83.4482 232.951 -77.9116 -854.705 550.052
7425 2 -13.2955 -66.6376 -3.73836 -568.847 -662.295 -330.362 122.697 93.7967 211.387 -229.182 541.761
7417 1 -14.478 -66.5974 -4.80589 1163.42 1074.94 803.864 -143.631 106.994 -375.609 -864.466 790.427
7419 1 -12.2393 -66.2335 -2.58533 944.541 1262.32 1001.77 -166.653 -30.7918 -98.6641 -883.454 448.823
7422 2 -10.7813 -66.2298 -3.26685 -472.93 -770.404 -531.596 34.4185 -31.9306 103.3 -230.473 336.313
5027 2 -14.351 -65.2444 -5.69855 -605.557 -299.75 -563.296 -15.9187 -78.4497 -23.5909 -238.587 321.361
4932 2 -16.6617 -64.9208 -2.20666 -593.335 53.0687 -522.663 193.778 -42.2861 124.635 -236.876 736.047
7428 2 -12.4977 -64.7199 -2.06033 -476.912 -422.195 -482.144 102.224 67.7187 219.286 -236.117 438.946
5020 1 -14.3802 -63.9917 -6.68874 844.479 1099.28 947.042 -23.3528 78.9829 -192.338 -860.737 425.021
2522 1 -16.7302 -63.305 -1.94936 955.44 1094.49 1114.58 -135.826 158.967 41.2657 -846.712 398.493
5018 1 -12.1107 -63.2435 -1.57631 959.634 1025.98 1079.27 -57.3952 -2.94213 1.9579 -859.909 143.862
7517 2 -10.665 -63.1504 -0.866323 -201.438 -556.525 -480.71 77.6845 233.258 56.1493 -238.841 543.786
5021 2 -15.9416 -62.8433 -0.622029 -163.691 -546.463 -278.546 114.739 198.083 85.5353 -238.437 543.045
2528 2 -16.266 -62.3867 -3.20586 -604.684 -232.911 -374.591 41.9526 -48.7167 -155.196 -245.262 436.203
5023 2 -14.2321 -62.4408 -6.16274 -601.999 -271.313 -628.83 85.6516 -25.4351 -50.975 -242.896 388.188
5024 2 -12.1324 -62.2532 -2.84092 -690.143 -634.607 -582.971 -76.6616 133.366 29.5903 -232.5 286.766
5026 2 -13.2592 -62.6348 -0.595287 -384.74 -639.906 -605.149 -13.9587 -6.92289 134.966 -236.072 335.894
7432 1 -15.3559 -67.9716 0.0183993 1306.8 1186.94 1036.31 -279.344 141.45 24.5938 -883.201 592.494
25 1 -24.5019 -61.0282 -6.04982 1176.91 1085.03 944.695 142.797 174.259 -32.284 -838.178 443.203
2521 1 -19.468 -60.9025 -5.07768 987.967 1028.61 1041.86 -53.3222 18.2027 -1.11703 -846.6 109.057
27 1 -22.3316 -60.6339 -3.9393 1011.5 1169.19 817.681 -20.5388 -59.0572 41.4926 -845.836 331.496
30 2 -20.7447 -60.4299 -4.20739 -226.764 -561.048 -585.244 -50.8083 -148.248 73.6005 -242.108 458.637
33 2 -23.1341 -60.4492 -5.24777 -459.624 -584.952 -421.654 162.403 76.3391 229.519 -241.734 525.882
2620 1 -19.4901 -58.3219 -6.73078 1109.5 1183.5 803.864 -68.196 185.777 -17.4978 -838.094 489.814
2627 2 -19.4637 -59.8959 -6.32311 -688.42 -179.015 -530.766 7.30158 8.48018 11.0888 -243.434 452.53
36 2 -22.7361 -59.6539 -2.65951 -709.43 -351.887 -255.677 -53.5859 -119.814 250.097 -239.728 640.952
2621 2 -20.9587 -59.0607 -0.948318 -471.685 -603.559 -599.286 43.0092 -10.378 41.3213 -237.882 166.854
122 1 -22.4476 -58.8099 -1.34854 803.038 1115.16 788.214 54.6153 148.426 -168.542 -857.042 512.375
127 2 -24.2646 -57.5313 -6.13521 -621.193 -429.71 -323.39 79.6783 23.3145 229.446 -241.558 496.932