ITEM: TIMESTEP
540000
ITEM: NUMBER OF ATOMS
29952
ITEM: BOX BOUNDS pp pp pp
-2.5615833775063237e+01 3.5601128117061187e+01
-7.9414982200481290e+01 8.9400276534680017e+01
-2.1035324467156940e+01 3.4903177627851115e+01
ITEM: ATOMS id type x y z v_StrAtomXX v_StrAtomYY v_StrAtomZZ v_StrAtomXY v_StrAtomXZ v_StrAtomYZ c_PEAtom v_VMS
2400 2 -19.5229 -67.3206 -18.8307 251.621 -384.597 -79.6707 -218.646 622.367 -151.508 -267.572 1295.4
2316 2 -21.8978 -67.0744 -17.9181 -487.555 -479.534 -469.83 -14.5187 -236.032 -269.709 -262.523 621.475
2486 1 -21.046 -66.6944 -19.228 1230.14 685.242 887.398 25.6485 -115.036 92.725 -785.072 543.224
4901 2 -20.9927 -67.3549 -15.4682 136.72 -568.787 -511.75 -1.21577 211.713 -35.0927 -284.736 773.898
4912 1 -19.5545 -67.0984 -14.776 604.957 869.502 1233.86 300.173 161.145 22.2113 -735.389 805.499
2494 2 -22.0566 -67.0069 -20.4383 -1.59551 -367.545 -496.94 -129.823 507.21 -114.184 -264.495 1029.31
2410 2 -23.6737 -66.6669 -15.7973 36.0008 -413.013 -704.65 -242.599 -187.481 -127.531 -279.001 865.111
2402 1 -22.1638 -66.7189 -16.3596 579.067 651.569 1250.9 119.539 87.2884 355.352 -780.275 923.288
2416 1 -25.079 -66.3776 -15.0982 401.833 867.057 1233.1 -89.5479 5.72186 23.3381 -769.544 739.256
4904 2 -18.3757 -67.2031 -16.1268 -4.89722 -586.546 -150.773 -356.689 29.4666 47.5008 -314.668 815.967
4900 1 -18.1597 -67.1545 -17.8104 1128.27 856.092 1375.67 112.956 50.0469 530.581 -749.035 1045.45
4906 2 -18.5371 -68.1859 -14.1613 135.382 -378.988 -878.722 -260.061 -79.9675 42.9342 -268.142 999.485
4898 1 -17.2228 -68.072 -15.0805 465.214 858.761 1275.66 395.325 38.6002 131.754 -738.986 1009.03
4896 2 -15.936 -70.5846 -18.2188 -356.583 -163.176 -642.197 -72.3064 -5.05051 -129.171 -166.34 489.937
7392 2 -12.1303 -70.2393 -15.5003 210.89 -555.952 -946.686 -190.111 119.268 44.3277 -268.665 1094.23
4990 2 -16.8201 -68.0919 -18.0354 189.704 -240.654 -803.665 -363.21 18.0572 -45.1266 -265.846 1071.14
7481 2 -14.2947 -68.9563 -17.0176 88.7024 -210.434 -706.978 -190.318 420.04 -207.591 -267.085 1118.85
4812 2 -16.5825 -69.1929 -15.9463 -360.761 -346.739 -693.635 -198.799 -179.88 66.5701 -261.501 587.024
7396 1 -13.244 -69.1526 -15.8236 255.438 324.183 2163.66 28.8912 -128.231 18.152 -740.603 1888.83
4982 1 -15.8744 -69.3173 -17.4802 807.145 333.135 1518.51 299.478 -65.0596 -69.7771 -823.976 1168.02
7486 2 -11.7905 -68.2157 -16.1135 -109.804 -222.295 -1257.67 -183.784 -21.7961 31.1933 -303.483 1143.16
7394 1 -11.7871 -66.5557 -15.8063 964.731 230.273 1663.63 -31.8092 -83.4251 274.866 -766.571 1338.57
7397 2 -16.0362 -67.0683 -14.5719 232.183 -355.557 -585.114 350.124 190.427 -67.3107 -275.855 1011.53
7399 2 -13.8972 -68.3504 -14.5381 -426.536 -227.545 -589.845 -279.024 -303.889 418.991 -265.593 1065.85
7402 2 -13.1677 -66.1919 -15.026 389.094 -414.711 -809.96 -14.3908 -173.162 44.8923 -258.124 1103.02
7400 2 -12.066 -65.7341 -17.1681 -449.636 -215.971 -562.792 -130.282 364.891 -426.212 -264.943 1043.63
7408 1 -14.4602 -66.8954 -14.0949 1033.97 806.661 1285.26 99.8373 9.90085 -221.26 -787.589 590.762
7478 1 -10.7925 -69.3939 -15.3857 283.883 136.075 2040.6 93.6544 -157.309 58.737 -741.72 1865.07
4985 2 -20.7353 -65.121 -19.3593 -512.235 -255.097 -642.911 103.809 -50.3101 -164.57 -278.532 487.821
2407 2 -23.7204 -64.9991 -20.3323 -449.873 -378.008 -331.331 -153.568 -154.189 113.343 -264.574 437.39
2408 2 -21.7272 -65.1714 -16.4302 -474.42 -540.117 -774.683 -67.206 -59.1325 -222.843 -265.677 497.76
2401 1 -24.4374 -64.0572 -19.2137 678.995 898.358 952.47 66.2587 49.8828 222.325 -789.636 481.497
2409 2 -23.5025 -64.0222 -17.8882 -533.641 -474.847 -442.006 -129.229 -18.5034 -162.887 -277.282 370.391
4897 1 -20.2968 -63.5763 -19.1604 617.063 749.71 883.15 41.6973 314.611 638.9 -771.737 1256.92
2403 1 -22.2493 -63.7676 -16.9605 761.924 545.045 1045.6 75.501 121.419 162.392 -786.875 574.001
2406 2 -21.1412 -63.1117 -17.8991 -616.43 -548.057 -425.19 -53.5815 -82.5647 -146.603 -273.264 348.873
2412 2 -22.5488 -62.787 -15.6969 -513.716 -122.854 -454.017 -0.959317 -0.910249 212.568 -254.701 518.231
8 2 -22.3569 -60.3541 -16.5269 -584.338 -786.777 -440.166 45.6703 -26.9163 105.186 -261.874 364.11
2 1 -22.3145 -61.1978 -15.2224 865.413 927.493 873.834 57.6764 -3.03612 23.2688 -812.769 122.612
2497 1 -19.3527 -59.5003 -19.3202 812.733 752.96 1125.78 -10.1765 -179.15 -29.1349 -790.264 468.426
11 2 -24.6416 -62.714 -20.0086 -427.683 -681.553 -347.509 47.2311 75.0349 -187.341 -275.293 469.153
4905 2 -18.7673 -63.3325 -18.6962 -242.314 -472.656 -559.68 98.5442 124.782 -119.129 -270.62 446.201
2501 2 -20.7987 -61.2158 -14.661 -327.352 -503.809 -648.136 -82.2225 14.0161 31.4815 -256.562 318.244
2503 2 -19.2321 -60.6116 -20.5767 -427.908 -282.063 -203.089 -175.671 -192.795 320.261 -290.141 742.17
2507 2 -20.3587 -62.8433 -20.5445 -410.85 -586.314 -463.009 23.6898 -326.569 -181.394 -290.217 666.852
7 2 -25.0391 -60.2854 -20.6145 -533.594 -542.348 -547.968 56.1543 9.49184 24.975 -264.69 108.438
10 2 -23.4576 -60.9857 -14.1352 -236.25 -622.436 -474.086 95.5528 -124.929 -52.5095 -254.581 443.104
2512 1 -19.3902 -61.7129 -14.1078 876.197 621.4 956.01 -15.9213 32.0085 -121.65 -819.682 373.976
6 2 -20.6776 -59.6846 -18.4101 -308.807 -421.368 -441.673 -69.6569 -212.666 113.264 -270.854 451.764
2506 2 -18.2439 -61.7491 -15.2582 -337.892 -465.994 -421.491 -27.92 -180.42 163.245 -260.07 438.895
9 2 -23.1883 -59.4838 -18.9494 -300.798 -446.443 -554.707 -63.2032 4.8628 -58.5974 -271.515 266.566
3 1 -22.1235 -59.3951 -17.7868 703.51 811.219 866.014 -60.5315 64.7054 22.7958 -809.964 213.582
7529 2 -10.7519 -62.2224 6.37095 -377.938 -607.322 -310.536 -106.508 212.957 168.947 -226.455 573.005
1 1 -24.5496 -59.0467 -19.7064 914.876 787.551 914.206 140.946 93.5993 31.4542 -801.232 323.998
5031 1 -11.7634 -59.3911 3.78835 1060.03 864.546 1164.3 -15.9623 -9.89091 -118.216 -876.17 335.341
4903 2 -17.7841 -65.56 -18.0319 -390.111 133.005 -693.174 193.882 -113.68 -335.581 -272.363 1006.69
2505 2 -18.0158 -59.6167 -18.4803 -475.828 -551.017 -623.707 23.953 66.6916 50.581 -266.131 197.845
5003 2 -14.2246 -62.4767 -20.5162 -345.742 -287.566 -601.167 88.2887 -15.9763 -99.2991 -275.867 370.429
7401 2 -13.7849 -64.6103 -19.1446 -243.235 -518.571 -53.2082 -50.2844 470.984 -259.104 -271.143 1019.17
7398 2 -11.2993 -64.6751 -19.4051 -337.779 -598.035 -459.235 -138.689 -212.37 -87.2683 -257.374 516.458
7395 1 -12.4688 -64.5739 -18.2221 794.913 916.004 1191.07 -50.8992 -61.4977 456.353 -796.212 876.084
7393 1 -14.92 -63.941 -20.1692 773.55 1019.35 1044.78 71.3018 205.39 480.742 -765.035 949.979
4899 1 -17.3556 -63.988 -18.2106 661.711 814.286 902.17 -91.8938 68.3402 116.039 -785.947 352.352
4908 2 -16.8654 -63.3891 -16.8452 -478.558 -337.837 -603.156 25.9681 23.8715 68.5797 -266.521 265.899
7404 2 -12.3325 -63.2579 -17.2662 -356.328 -382.228 -124.25 100.06 22.8242 271.84 -268.71 560.207
4902 2 -16.2261 -63.7496 -19.2848 -385.587 -464.537 -649.722 12.0018 -108.854 -223.979 -279.203 491.555
2498 1 -16.7955 -62.0852 -15.879 846.583 870.627 891.783 -115.078 -141.743 -125.233 -805.194 385.469
2504 2 -16.3822 -60.8426 -16.8457 -501.297 -213.212 -392.473 47.5875 47.4949 -141.362 -266.577 370.129
4994 1 -12.1136 -62.2891 -15.9661 878.971 783.407 1408.14 -151.791 -77.7102 -54.6653 -804.655 660.242
2499 1 -16.6887 -59.4746 -17.6472 783.456 857.849 1010.15 -111.392 -142.655 -78.964 -808.583 396.285
5000 2 -12.1309 -60.7516 -16.5904 -499.066 -304.913 -639.921 -1.4846 62.0254 -56.3383 -258.846 325.504
4999 2 -13.8527 -59.8753 -20.5526 -434.759 -267.872 -400.982 106.96 123.82 249.212 -267.937 538.507
5002 2 -13.2341 -62.2337 -14.7788 -488.652 -448.484 -330.029 -113.499 -162.662 243.107 -260.725 561.898
4997 2 -15.798 -62.3435 -14.6912 -385.764 -469.064 -476.065 75.0283 138.141 11.6097 -257.532 286.553
4993 1 -14.0129 -58.7729 -19.3324 867.22 904.479 985.463 -141.396 -208.375 -38.5897 -801.122 453.509
4995 1 -11.8876 -59.2884 -17.0349 796.733 671.183 903.948 -156.96 65.9862 164.08 -811.721 456.572
2502 2 -15.4583 -59.1038 -18.6607 -209.673 -420.978 -459.33 153.921 -154.188 -25.1805 -261.193 445.559
5001 2 -12.8677 -58.9817 -18.2846 -370.905 -531.181 -588.77 20.9667 53.5198 -30.8056 -266.463 225.819
7493 2 -10.7292 -62.5716 -15.187 -342.47 -333.873 -424.139 68.8424 424.356 6.63016 -259.154 749.686
4913 2 -21.3891 -67.4482 -7.53994 -250.431 -890.34 -236.381 64.6296 212.471 4.56194 -232.458 752.792
2428 1 -25.4336 -66.5033 -7.5531 841.652 1130.74 904.612 -122.897 -82.6771 93.2527 -810.884 401.547
2414 1 -22.3511 -66.4359 -8.33285 794.445 1118.64 726.422 50.5456 -12.2553 158.132 -809.549 463.587
2422 2 -23.9475 -66.6021 -8.19341 42.8237 -356.86 -757.857 -13.5204 -47.6765 -68.1908 -257.425 708.615
2328 2 -22.0644 -66.0389 -9.82712 -659.159 -496.721 -415.792 -47.7341 -94.7484 -262.337 -252.184 535.08
4918 2 -18.977 -66.3278 -7.43676 -426.852 -406.351 -691.391 18.9997 -105.076 14.4336 -268.506 332.649
7320 2 -12.5243 -67.3588 -10.257 -383.889 -155.441 -317.726 124.36 55.1045 -65.9478 -174.74 331.669
7406 1 -12.4609 -66.8857 -8.81626 767.243 739.26 1400.71 -331.079 -6.97296 83.5395 -823.567 877.332
7414 2 -13.8634 -66.3752 -8.2119 25.7548 -355.77 -696.948 -62.3612 -294.208 -18.0932 -252.951 815.142
7409 2 -16.3615 -67.313 -7.67679 89.343 -816.28 -452.609 -84.3498 188.83 -0.826967 -231.179 866.821
9905 2 -11.4089 -67.4236 -7.67821 107.973 -344.204 -652.663 236.998 308.375 228.197 -240.588 1024.26
7420 1 -15.2005 -66.2787 -7.26493 616.518 1146.51 1127.63 -102.959 -96.3936 -159.829 -822.602 638.399
4910 1 -17.5661 -66.2622 -8.14383 757.136 1158.99 862.522 -51.8638 145.113 120.652 -800.695 495.133
7411 2 -14.4701 -65.988 -12.7935 -602.119 -237.508 -405.603 36.0511 5.57851 441.186 -256.129 829.359
4824 2 -17.6856 -65.8735 -9.65892 -665.636 -401.637 -549.621 -42.1771 -206.53 -185.322 -253.546 537.457
2419 2 -24.8076 -65.5289 -13.813 -486.573 -289.395 -200.866 48.1675 105.92 223.5 -264.225 504.625
5022 2 -10.508 -58.9306 -3.75567 -452.121 -665.229 -417.955 2.69976 -138.003 83.006 -235.895 362.891
4915 2 -19.3973 -65.7505 -13.9399 -583.559 -398.717 -445.209 79.0571 -45.8634 221.959 -275.914 447.876
2415 1 -21.9782 -64.7881 -10.8412 971.711 1151.08 870.912 -1.73244 142.558 195.35 -824.606 485.669
2421 2 -23.2844 -64.6728 -11.7646 -312.797 -502.775 -301.445 -82.581 226.889 -36.4305 -255.126 466.105
2418 2 -20.7432 -64.8777 -11.8993 -429.394 -441.896 -240.919 54.1468 -299.349 18.9198 -256.398 562.792
4909 1 -19.4455 -64.6287 -12.8414 1248 575.309 843.263 -30.6046 68.9482 -356.595 -815.25 861.752
2413 1 -24.7141 -64.4239 -12.5224 992.769 1119.69 969.325 2.44386 82.5324 -21.3385 -816.248 203.602
23 2 -24.8191 -62.9411 -13.1902 -571.169 -223.46 -437.079 -68.7042 33.6309 -130.066 -259.713 400.703
2424 2 -21.8189 -63.5175 -9.79756 -460.159 -251.042 18.6891 71.5609 6.21313 441.174 -247.096 878.791
14 1 -21.9477 -62.4456 -8.47564 1174.37 918.798 1302.23 27.2078 93.8627 154.503 -847.619 463.255
20 2 -21.823 -61.0104 -9.10984 -691.863 -277.733 -615.553 -58.9947 -96.87 -69.6473 -248.668 445.948
21 2 -23.7847 -59.9926 -10.5159 84.6499 -371.262 -399.064 -36.546 228.486 43.1936 -240.165 622.516
18 2 -21.2069 -59.9072 -11.4206 -324.815 -486.376 -386.411 4.55683 -278.808 1.30273 -255.507 503.203
15 1 -22.1444 -59.8075 -10.1096 1316.72 943.163 1060.2 168.948 177.548 21.135 -827.786 539.503
2519 2 -19.4916 -63.2275 -13.6297 -587.381 -422.299 -512.372 12.6142 -4.42658 -95.4593 -255.844 219.93
2515 2 -19.1219 -60.7974 -12.8569 -612.169 -557.434 -551.962 -43.4545 -206.492 69.4166 -254.331 389.054
22 2 -23.4448 -62.6437 -7.83502 -300.754 -514.588 -445.263 78.5186 -352.118 3.24905 -235.319 652.837
2513 2 -20.9815 -62.4541 -7.16322 -564.391 -764.836 -136.93 -103.24 107.149 117.727 -231.841 645.43
16 1 -24.9614 -61.4305 -13.6799 1135.55 770.858 873.949 -38.9672 127.146 -97.3532 -825.711 433.031
19 2 -25.425 -60.4301 -12.5503 -664.142 -345.375 -455.914 13.1451 13.4428 212.729 -246.632 464.129
2517 2 -18.7558 -59.5044 -10.6804 -311.825 -554.433 -619.024 0.853047 128.52 -55.2451 -247.517 370.69
2420 2 -21.4867 -65.3347 -7.44928 -108.344 -988.537 -443.779 79.0802 142.451 -30.9791 -229.507 821.296
2509 1 -19.7034 -59.6323 -11.9373 1046.22 930.739 836.087 5.12173 35.9022 -254.473 -823.093 481.08
13 1 -25.0573 -59.3458 -11.3715 1016.55 972.35 1057.62 -9.39823 242.456 -132.403 -842.007 484.425
28 1 -24.8287 -62.463 -6.99346 1178.2 967.726 976.928 22.2691 59.8787 -95.1778 -861.433 286.125
7412 2 -11.3792 -65.4899 -8.8519 -122.951 -584.983 -198.025 40.0767 417.065 -214.594 -273.8 921.533
4916 2 -16.3636 -65.1773 -7.67901 60.8524 -868.571 -627.598 49.8814 43.3752 -35.972 -227.586 845.53
4917 2 -18.1151 -64.7204 -11.889 -301.097 -522.857 -328.452 -29.0993 184.901 127.676 -254.091 444.825
2516 2 -17.5572 -60.8256 -8.71391 -688.991 -476.267 -531.756 135.758 -100.264 -91.3307 -241.859 383.405
4920 2 -17.4365 -63.2355 -9.69311 -639.213 -190.661 -135.564 152.305 51.1196 284.398 -246.362 740.962
5008 1 -14.447 -62.1486 -13.7613 977.128 1046.42 976.309 16.5725 37.714 12.7178 -817.965 102.15
7405 1 -14.3113 -64.7206 -11.7823 777.44 1081.78 1110.28 -115.826 -83.9373 -146.452 -837.26 477.324
4914 2 -15.6407 -64.6039 -10.8544 -198.775 -596.726 -538.18 57.1953 -146.3 -34.3852 -243.786 464.829
7413 2 -13.0203 -64.6657 -10.8709 -592.474 -825.654 -402.928 -4.47112 148.383 -25.296 -254.654 450.035
4911 1 -17.2317 -64.6165 -10.5488 1106.46 1168.4 717.908 69.6469 161.506 174.49 -830.499 602.512
7407 1 -11.6044 -64.5747 -10.2284 857.997 1058.43 923.012 -57.0908 -157.026 100.913 -828.873 381.664
5015 2 -14.3431 -63.4496 -12.8013 -548.59 -182.14 -560.502 -29.2127 45.9259 -143.765 -248.566 457.915
5006 1 -11.7214 -61.9933 -8.56436 755.424 939.503 970.712 24.3593 -122.937 -177.92 -843.307 427.423
5012 2 -11.7369 -60.5397 -9.34601 -543.335 -269.696 -301.378 40.251 -19.8207 -266.44 -245.54 534.997
5014 2 -13.1073 -62.478 -7.95852 -667.433 -525.612 -618.321 139.862 -95.6548 -114.166 -241.807 375.227
2510 1 -17.2397 -62.3167 -8.31456 1221.83 854.157 1196.23 -103.845 75.9675 82.0147 -847.661 443.025
5011 2 -14.6385 -60.741 -12.9198 -468.453 -5.13579 -371.218 -148.455 -102.513 272.848 -257.882 707.141
2514 2 -16.2096 -60.0581 -10.8849 -500.539 -426.411 -293.874 -6.6226 -203.648 78.5062 -259.045 419.433
5005 1 -14.9495 -59.6346 -11.7562 832.545 864.038 968.704 -29.1436 107.711 -17.2028 -825.471 231.266
5013 2 -13.6218 -59.6296 -10.8377 -290.733 -575.401 -642.325 53.3442 47.3905 92.0232 -243.769 381.11
2511 1 -17.3658 -59.6676 -9.81361 1090.97 833.766 1149.89 -157.808 33.8548 35.384 -829.107 408.273
5007 1 -12.0538 -59.4604 -10.5048 914.759 828.181 1245.35 31.0838 -108.825 -118.724 -837.345 475.519
7416 2 -11.3912 -63.0701 -9.70167 -645.75 -429.303 -691.06 61.9716 141.865 59.5272 -237.479 375.818
5009 2 -15.7146 -62.2436 -7.76146 -258.454 -683.015 -490.714 98.9919 124.639 98.6702 -238.724 490.712
2518 2 -18.3542 -62.7231 -7.17988 -340.411 -603.807 -193.869 130.979 -323.46 65.9651 -244.269 712.636
5010 2 -11.1565 -59.7215 -11.8646 -154.705 -505.178 -260.656 -31.6532 -234.383 31.3804 -251.425 517.388
2426 1 -23.4952 -66.3462 -0.0221787 1108.36 1109.45 1033.2 92.6562 215.819 -71.3559 -789.27 431.852
2431 2 -25.0249 -66.0492 -6.0485 -707.378 -480.15 -320.694 160.119 133.409 232.397 -242.47 636.887
4924 1 -20.3933 -66.3772 -6.80235 684.768 1152.03 647.701 -114.992 63.656 -77.3854 -812.814 553.915
4927 2 -20.2234 -66.1322 -5.25523 -662.524 -378.565 -223.544 109.707 47.6098 340.169 -245.839 733.987
7332 2 -12.5421 -68.2658 -2.00298 -559.518 -309.816 -435.982 99.8485 48.0903 -194.103 -121.732 443.441
7418 1 -12.6888 -67.2692 -0.886411 1333.25 1093.46 1282.76 -40.2102 157.358 150.119 -937.914 441.229
7426 2 -14.2653 -67.1249 -0.482617 -150.526 -774.275 -699.07 -203.403 184.662 -158.916 -200.497 806.22
7432 1 -15.6132 -66.2506 -0.296915 1576.8 1099.99 956.743 -55.8153 123.303 -161.336 -880.946 670.236
7423 2 -14.7185 -65.921 -5.81033 -697.282 -668.559 -584.512 206.195 63.7818 131.228 -236.651 449.131
4928 2 -16.4431 -65.6656 -1.63575 -453.711 -409.482 18.9615 -198.705 216.63 -300.905 -230.119 857.518
33 2 -23.2356 -58.8933 -5.402 -272.738 -645.643 -314.028 108.83 101.138 160.389 -235.326 518.419
27 1 -22.346 -59.0883 -4.02854 1189.04 948.122 836.459 -12.0342 246.943 8.97429 -842.758 530.121
2432 2 -23.1497 -65.4912 -1.31133 -628.054 -383.485 113.831 148.159 -247.562 -252.837 -256.574 932.877
2433 2 -23.821 -64.931 -3.88608 -635.222 -639.475 -334.751 -28.2405 11.8127 47.4416 -248.386 318.028
2425 1 -25.0326 -64.9233 -4.91956 1106.54 1180.67 564.505 69.34 48.4586 -259.08 -848.231 749.876
2430 2 -21.2545 -64.8836 -3.14122 -206.401 -522.419 -384.754 25.2567 -313.074 4.34485 -245.938 609.37
4921 1 -19.9818 -64.9275 -4.13886 1223.92 1147.33 938.943 -44.8949 227.427 -146.203 -839.683 539.067
2427 1 -22.8107 -64.6184 -2.71567 1253.58 955.087 896.832 -142.513 157.581 -33.8294 -836.383 498.739
2531 2 -19.8741 -63.6227 -5.09116 -638.025 -176.405 -203.898 127.8 -246.892 -140.912 -249.427 701.849
2436 2 -22.9535 -63.056 -2.35413 -634.32 -198.026 -592.014 72.8546 -60.9901 -52.4121 -247.87 457.174
2524 1 -19.6472 -62.455 -6.23788 1448.82 1012.11 781.873 -56.9779 113.397 -212.788 -850.253 726.927
2527 2 -19.5761 -60.9139 -5.80294 -783.44 -25.8971 -527.377 -86.4191 -150.571 -74.6987 -239.152 743.384
31 2 -24.7282 -60.9012 -6.49558 -719.321 -197.176 -552.109 75.2146 -32.3407 28.3898 -232.977 485.607
26 1 -22.6873 -61.4696 -2.28349 1051.48 842.346 1083.61 -42.3769 133.585 28.8194 -838.247 336.009
34 2 -23.8211 -60.9286 -1.22979 -415.659 -704.351 -519.503 -73.7844 -170.328 144.588 -239.185 479.825
32 2 -22.8154 -60.5553 -3.60403 -701.13 -261.975 -615.065 46.7967 -101.875 -74.3083 -243.786 465.552
2525 2 -21.2217 -61.1783 -1.72726 -354.323 -501.011 -522.747 -23.102 85.3629 21.1613 -243.608 223.569
35 2 -24.9257 -63.5325 -5.78576 -633.202 -315.133 -233.808 27.4372 -155.478 -157.841 -242.11 532.135
2536 1 -19.7737 -61.5159 -1.02526 989.019 910.924 735.123 -162.607 29.4212 -28.8007 -844.709 367.618
2543 2 -19.7311 -63.052 -0.654179 -675.343 -543.039 -501.518 65.7338 -36.4203 -129.846 -246.27 303.716
40 1 -25.0192 -61.3975 -0.33141 1253.94 860.665 724.744 0.604456 244.937 -42.9908 -851.291 641.969
4929 2 -18.5667 -65.0521 -3.30581 -313.154 -560.994 -344.88 -7.28007 252.082 60.136 -240.187 506.175
2530 2 -18.5385 -61.1713 -1.9556 -467.59 -680.537 -527.09 126.027 -20.9455 41.5523 -242.365 300.601
2521 1 -19.5652 -59.3539 -5.29783 828.769 1124.72 995.703 -103.067 187.375 -18.2884 -857.752 451.937
25 1 -24.6396 -59.3611 -6.09612 1306.74 859.895 755.248 103.289 64.9826 135.412 -858.927 597.552
30 2 -20.7665 -59.0923 -4.32939 -497.298 -616.685 -686.22 -47.5793 -56.4807 81.2882 -239.016 252.14
5017 1 -14.0374 -59.2149 -5.84586 1009.46 929.652 818.453 -16.653 36.5447 15.2916 -863.603 182.07
2523 1 -16.6331 -59.2873 -4.08226 1077.86 1092.74 780.972 -171.146 133.945 -20.8996 -858.443 485.58
7517 2 -10.805 -61.5287 -0.840747 -537.007 -639.011 -569.217 -92.6496 181.37 4.48266 -226.252 364.217
7424 2 -12.5392 -65.7142 -1.58967 -653.716 -665.302 -532.028 -27.1422 15.823 -208.481 -198.807 386.92
7425 2 -13.5658 -64.6922 -3.7452 -492.953 -749.341 -572.507 11.5036 -59.8239 95.0316 -224.575 299.823
4926 2 -16.1536 -64.7675 -4.17574 -656.222 -699.532 -391.126 130.886 -82.8487 -52.2097 -230.181 404.717
5020 1 -14.322 -62.2771 -6.96842 846.403 1195.48 1208.02 -18.4228 145.379 -140.148 -854.331 499.739
4923 1 -17.0792 -64.7422 -2.83224 1056 1192.52 1082.65 -62.9478 102.474 -79.0562 -863.845 279.015
7419 1 -12.3286 -64.6857 -2.71551 1094.26 1056.23 901.045 -69.9419 -20.8642 65.6928 -900.087 245.681
7417 1 -14.7248 -64.7122 -4.81311 962.629 1229.14 488.936 -100.771 212.836 -391.837 -870.4 1024.02
2528 2 -16.5214 -60.8232 -3.56945 -643.042 -344.526 -433.639 125.93 -96.9025 -90.2849 -229.907 413.099
4932 2 -16.9966 -63.1754 -2.34017 -654.001 -303.639 -581.939 66.994 -31.3067 86.0044 -232.989 375.891
5027 2 -14.465 -63.3866 -5.7638 -555.886 -229.535 -298.62 130.684 -238.213 -159.428 -234.77 621.655
7428 2 -12.3171 -63.216 -2.04606 -606.905 -466.157 -589.061 -30.5193 -13.7649 65.2648 -219.437 183.734
5023 2 -14.0262 -60.7101 -6.448 -574.462 -90.91 -560.244 157.689 33.193 103.1 -233.959 580.466
2522 1 -17.0117 -61.5918 -2.21355 967.052 922.315 925.257 -167.13 35.9167 -121.03 -857.583 365.364
5018 1 -12.214 -61.6721 -1.61365 905.833 1154.05 1035.05 4.37267 43.0287 -103.381 -877.329 289.672
5024 2 -12.2104 -60.5598 -2.78967 -697.882 -498.006 -530.344 16.5276 -36.532 7.63037 -232.426 198.823
5021 2 -16.0103 -61.1594 -1.08437 -406.549 -641.846 -577.742 64.6284 43.9307 99.9462 -239.538 304.431
5026 2 -13.4246 -61.341 -0.638629 -557.99 -679.64 -577.47 44.9783 -10.6931 6.87738 -230.109 139.15
7422 2 -10.9691 -64.7782 -3.62233 -353.376 -667.242 -247.363 21.3746 -257.504 61.8333 -225.575 595.643
2526 2 -15.4893 -59.0663 -5.15401 -514.017 -687.119 -547.721 -4.43359 -92.2575 71.558 -231.948 257.334
5032 1 -14.8474 -61.1492 0.0380365 1118.73 962.104 801.157 -55.9554 24.0809 -266.246 -870.811 547.211
5025 2 -12.9838 -58.9946 -4.68344 -525.403 -657.293 -355.42 50.8375 38.2176 133.451 -237.476 366.429
2529 2 -18.131 -59.1401 -4.66592 -457.488 -655.997 -503.6 89.4735 19.1787 20.2298 -237.972 242.335
5019 1 -12.0384 -59.1079 -3.36128 1091.51 1018.21 655.568 -143.994 219.665 -90.1553 -862.867 628.337
2434 2 -24.8731 -67.2399 0.0632734 115.036 -462.612 -425.588 -77.2586 -414.774 -62.6184 -241.731 927.062
2459 2 -25.2893 -66.6965 4.98268 -487.718 -700.376 -427.733 19.0687 82.36 75.3845 -226.467 316.333
4948 1 -18.6749 -66.623 6.11692 1201.42 1046.59 882.504 196.731 78.9233 -241.899 -860.478 621.806
4925 2 -22.0866 -66.9755 0.516799 154.694 -380.648 -718.519 -346.353 169.448 69.8067 -250.683 1020.91
4943 2 -21.0472 -66.7183 2.82921 -747.268 -650.96 -494.357 -57.1952 -22.0455 -125.804 -226.862 328.075
2446 2 -22.6191 -66.4433 5.01054 -181.923 -733.472 -437.615 56.8463 -220.042 22.3992 -213.807 620.494
4936 1 -20.6461 -66.7515 1.24168 1170.45 754.477 1289.86 41.9128 -165.433 -62.699 -848.311 579.765
4930 2 -19.2191 -67.5259 1.25312 -8.38041 -513.366 -581.442 -54.5299 452.632 -85.8888 -229.274 969.381
4937 2 -19.9247 -66.4518 5.15018 -761.518 -558.434 -713.652 27.5015 30.4721 35.6425 -232.644 206.589
2438 1 -21.1607 -66.1401 4.28412 1204.74 1065.43 746.411 177.824 -275.139 58.6493 -878.783 705.626
2452 1 -24.0299 -65.9044 5.59811 1021.92 1465.12 923.213 23.4039 104.532 -244.791 -901.291 681.256
4955 2 -17.9186 -68.0689 5.76866 -270.219 -562.914 -324.556 -335.562 -321.177 181.001 -207.925 904.583
4922 1 -17.7435 -67.1412 1.93082 1403.43 697.578 1344.07 -80.2151 9.4857 245.188 -854.589 812.269
9917 2 -11.5419 -67.3629 0.35608 110.647 -479.751 -334.172 7.03253 462.862 -55.4276 -205.928 967.421
7444 1 -13.9085 -66.7259 5.9023 1042.66 1008.7 899.331 -145.561 -15.8639 -339.903 -872.565 654.027
7430 1 -11.1439 -66.4663 4.36189 1051.4 981.678 1408.2 -89.6529 -40.6541 176.849 -880.504 529.094
7421 2 -16.7175 -66.9676 0.696324 -554.806 -297.224 -364.486 163.439 -325.6 -115.499 -230.655 701.25
4940 2 -17.0006 -67.7851 3.21508 -571.263 -508.247 -129.618 54.7108 328.715 -65.4949 -238.706 719.167
7438 2 -12.4669 -66.8162 5.21232 -3.86186 -598.162 -718.424 13.69 -83.3795 46.1945 -232.193 683.336
4934 1 -16.7168 -67.5133 4.77874 1040.8 1116.71 1248.6 247.5 -144.347 110.374 -847.389 562.135
7433 2 -15.1982 -67.3335 5.19651 -286.48 -450.623 -768.113 313.206 149.606 -66.9603 -235.839 744.814
7344 2 -10.8769 -67.1198 2.91018 -633.223 -658.086 -214.996 59.1691 -190.513 -7.97769 -212.778 552.73
4942 2 -17.338 -66.0361 5.39771 -605.959 -582.789 -311.181 -269.268 -241.946 330.309 -202.157 895.01
37 1 -25.0164 -59.4254 2.09004 1078.12 1055.25 869.808 -113.685 129.335 -269.085 -849.441 587.646
2542 2 -18.4181 -62.3565 6.51315 -616.345 -622.109 -467.896 -84.0781 -87.9969 328.151 -228.82 624.831
2443 2 -24.4601 -65.3592 1.11672 -173.967 -624.515 -572.538 -134.77 -388.239 93.9192 -291.183 845.823
4939 2 -20.2085 -65.26 0.82247 -667.546 -460.891 -733.263 167.985 -69.4546 -56.283 -239.995 411.384
29898 2 -25.6679 -63.4615 2.41518 -604.695 -465.35 -815.712 -124.871 -93.3987 330.49 -251.256 702.83
2537 2 -20.9507 -61.7639 6.15852 -477.276 -592.127 -603.448 -50.4236 26.5081 20.9908 -228.003 160.239
2539 2 -19.6769 -60.6511 0.274783 -693.802 -565.164 -649.733 39.0814 48.7382 80.7419 -244.316 209.969
46 2 -23.5398 -61.6452 6.08929 -632.543 -823.604 -474.608 30.9698 -130.441 -96.1595 -226.153 416.276
47 2 -24.5156 -62.8008 0.28088 -804.022 -264.314 -557.495 -8.62164 9.86133 -154.447 -230.743 539.522
2441 2 -24.104 -64.435 5.01587 -490.902 -489.24 -109.696 88.3647 -98.6858 -16.5761 -153.591 445.144
2444 2 -21.1971 -64.5267 3.92914 -752.223 -333.594 -534.646 -13.1745 120.475 -127.304 -228.525 473.485
2437 1 -24.3995 -63.7837 1.60316 759.259 614.142 1214.53 -85.2678 154.07 -352.199 -829.766 871.525
2439 1 -21.6182 -63.2948 3.02359 1328.25 911.97 1207.15 22.148 6.57749 -374.82 -860.994 748.741
2448 2 -22.049 -61.9994 3.85481 -696.982 -559.361 -594.194 -136.778 -82.6619 213.945 -230.57 478.853
42 2 -20.8708 -59.767 2.48718 -353.496 -758.087 -411.45 -35.2458 -175.056 131.54 -230.148 539.605
2533 1 -19.4989 -59.7067 1.53638 1285.73 1067.95 774.538 -62.8707 -114.192 -243.063 -857.974 652.408
45 2 -23.4905 -59.5215 2.60457 -507.078 -639.303 -562.038 32.3297 67.6089 74.7447 -236.797 216.439
38 1 -22.216 -61.3096 5.28634 1257.69 1127.86 604.646 52.1656 155.133 -64.8156 -876.932 671.943
2442 2 -20.4202 -63.0335 1.91178 -577.043 -655.054 -306.109 29.3931 -224.564 2.34209 -235.501 504.502
44 2 -22.1425 -59.7608 4.85647 -647.983 -562.629 -287.35 26.9229 -24.956 -178.83 -222.79 454.47
4933 1 -19.6095 -63.7851 0.750764 1227.42 760.154 924.353 -58.4683 -62.289 323.565 -844.391 710.321
2445 2 -22.9224 -63.6036 2.01874 -399.76 -546.158 -676.519 -11.8996 33.1881 118.923 -239.943 321.975
43 2 -25.245 -60.443 0.91689 -755.334 -487.622 -526.25 -3.17508 -37.3287 52.4922 -246.677 274.404
39 1 -22.1051 -59.2068 3.29156 933.283 1030.98 1123.45 11.4363 28.7843 -174.773 -868.445 348.776
5029 1 -14.6044 -59.1817 2.35664 1111.62 1120.94 749.163 -116.899 -118.98 -148.648 -861.364 533.472
4836 2 -18.0497 -65.6777 2.60341 -754.113 -290.478 -948.113 19.2888 -102.771 224.351 -225.379 725.494
5039 2 -15.1067 -62.4143 1.01054 -682.614 -303.627 -567.265 -9.63733 11.5846 -113.421 -220.215 390.506
5033 2 -15.9186 -62.4989 5.79499 -328.33 -632.742 -503.797 181.696 316.088 103.739 -218.833 707.886
7437 2 -13.3097 -63.863 2.25577 -361.396 -518.161 -552.696 79.9801 251.482 -30.8124 -225.389 492.9
4935 1 -17.5195 -64.1468 2.71121 1054.37 843.871 1280.04 23.5019 -4.45578 -220.598 -861.483 538.933
2538 2 -15.8045 -59.6226 3.32876 -328.932 -639.332 -520.086 41.9284 -122.198 80.8476 -231.415 378.463
5030 1 -12.1172 -61.8217 5.63925 1054.06 1242.1 952.995 221.748 26.5921 -261.036 -873.981 647.018
7429 1 -14.7783 -63.93 1.5808 983.435 948.576 1310.95 -329.486 -66.6333 9.67137 -877.997 677.628
5038 2 -13.4111 -62.1991 6.46829 -420.989 -578.246 -546.519 82.953 -215.397 -43.0137 -233.619 431.426
7447 2 -14.1405 -65.2345 6.50624 -626.692 -771.99 -160.388 62.5664 -99.9286 434.222 -196.806 955.852
2535 1 -17.367 -59.5885 3.79935 1186.25 606.97 909.481 -115.8 -9.55796 -105.62 -864.573 570.798
2534 1 -17.4603 -62.3159 5.26085 1353.01 1166.22 922.191 -238.978 126.628 -36.1343 -873.062 602.804
7436 2 -11.4791 -64.9332 3.91375 -619.19 -442.88 -790.813 -81.7582 116.025 -140.383 -209.017 458.649
7440 2 -12.2519 -62.476 4.16992 -758.525 -780.123 -694.214 -26.8006 107.923 -49.8434 -221.888 224.814
2540 2 -17.624 -60.7644 4.79611 -745.151 -385.833 -757.373 4.47457 37.4208 133.252 -226.465 437.24
5036 2 -11.8489 -60.2357 5.14609 -545.628 -309.436 -425.581 103.633 -110.379 -278.597 -223.969 586.057
7431 1 -12.008 -63.5853 3.15318 930.015 919.96 1033.29 46.924 51.5417 -312.22 -894.584 564.646
7435 2 -14.9531 -64.9575 0.393288 -645.581 -651.789 -537.475 282.339 73.8719 -60.8996 -225.699 528.242
5037 2 -13.1406 -59.4264 2.97508 -384.361 -623.696 -468.985 -42.738 143.98 47.0396 -236.57 344.234
4941 2 -18.0565 -63.7327 1.22772 -468.552 -684.409 -382.972 -4.28723 179.712 76.661 -233.516 432.396
2541 2 -18.2273 -59.9364 2.45694 -566.33 -540.043 -342.935 135.54 131.279 182.876 -237.519 501.867
4938 2 -15.914 -64.1597 2.69068 -431.986 -504.712 -772.74 18.1757 -41.3724 65.4138 -226.675 339.976
4944 2 -17.8938 -63.2759 3.97514 -766.852 -364.873 -66.9509 223.676 141.102 332.012 -238.28 954.265
5035 2 -14.7818 -59.8843 0.967631 -735.891 -758.392 -580.185 73.8074 103.4 31.7103 -236.321 282.291
7434 2 -10.7908 -63.2032 2.19957 -505.687 -737.773 -697.601 -15.1068 -112.808 -19.7517 -213.723 293.576
4998 2 -10.4052 -59.0577 -17.5014 -554.543 -437.05 -392.076 79.6489 -81.1561 -105.087 -260.708 305.011
9893 2 -10.313 -66.4651 -15.1536 52.0257 -330.679 -788.358 -281.598 184.259 -20.0414 -268.71 933.831
5034 2 -10.4864 -59.8621 2.88252 -238.57 -755.792 -371.262 -42.0856 -262.294 44.6637 -225.61 658.928
7410 2 -10.3896 -64.7778 -11.2609 -174.655 -749.334 -347.079 102.336 -144.765 -70.1454 -243.282 608.232
7505 2 -10.7187 -62.0712 -7.37664 -715.348 -480.586 -542.488 -14.7235 34.4409 81.2342 -247.59 261.569
7308 2 -10.4523 -68.5833 -14.0394 -421.63 -22.9166 -890.881 263.182 224.941 246.047 -255.053 1052.37
2453 2 -25.2453 -66.1436 13.3226 -379.964 -328.2 -641.454 172.809 184.576 35.8182 -248.785 529.373
2456 2 -21.6002 -65.6751 12.2376 -750.665 -585.183 6.40989 113.874 41.1854 -138.836 -225.184 759.659
2450 1 -21.697 -65.8291 13.8528 895.45 1221.38 1354.19 -34.269 64.4978 -277.094 -862.223 643.038
7451 2 -13.906 -67.1071 7.45767 -629.547 -637.769 -514.549 43.8251 -66.5051 508.661 -196.5 899.709
7448 2 -12.2266 -65.934 11.2915 -482.283 -119.586 -299.103 73.5817 62.755 55.3072 -117.296 368.645
4951 2 -19.1264 -66.0897 7.54441 -725.858 -243.615 -254.272 -73.9072 -219.299 279.997 -232.433 789.551
2455 2 -23.9339 -65.9013 7.2507 -621.461 -693.991 -121.322 -3.84165 52.814 137.489 -217.348 597.325