ITEM: TIMESTEP
1220000
ITEM: NUMBER OF ATOMS
29952
ITEM: BOX BOUNDS pp pp pp
-2.5615833775063237e+01 3.5601128117061187e+01
-1.0201230029888866e+02 1.1199759463308742e+02
-2.1035324467156940e+01 3.4903177627851115e+01
ITEM: ATOMS id type x y z v_StrAtomXX v_StrAtomYY v_StrAtomZZ v_StrAtomXY v_StrAtomXZ v_StrAtomYZ c_PEAtom v_VMS
4898 1 -17.1296 -69.0226 -14.9601 225.214 742.104 1251.53 382.234 73.5457 -63.9517 -746.737 1121.08
4990 2 -16.8508 -69.2338 -17.698 82.8731 -160.115 -609.247 -470.783 259.516 -169.598 -265.706 1150.28
7486 2 -11.8367 -69.3489 -16.0526 -51.3653 -233.364 -1220.03 -197.204 -25.4267 -51.6185 -304.251 1145.78
7396 1 -13.2194 -70.3836 -15.6201 429.848 256.177 1908.56 60.1271 62.268 -81.2486 -739.083 1586.14
7481 2 -14.4325 -70.2603 -16.6594 224.271 -169.373 -868.366 -173.009 374.597 -146.102 -275.506 1222.09
4812 2 -16.7059 -70.402 -15.5246 -479.878 -322.95 -680.853 -168.161 -94.4276 -4.61591 -257.335 456.293
7478 1 -10.6464 -70.4976 -15.4632 689.735 215.483 1857.57 108.533 -179.552 -79.0787 -729.487 1514.41
4982 1 -16.0275 -70.5667 -17.0541 825.268 651.244 1652.46 364.141 -39.354 -107.504 -812.109 1138.24
7392 2 -12.0145 -71.4015 -15.352 390.933 -447.635 -871.942 -39.3161 21.6628 7.20741 -269.187 1115.9
4896 2 -16.2665 -71.9079 -17.7823 -284.742 255.615 -535.509 -14.8183 63.2761 80.2234 -168.006 722.739
7399 2 -13.7505 -69.5795 -14.346 -530.915 47.3081 -732.971 -243.136 -186.897 344.274 -267.225 1062.88
204 2 -22.4323 -48.6554 -15.9831 -536.876 -362.221 -459.445 -63.4087 -18.159 154.716 -253.93 328.388
4904 2 -18.3277 -68.271 -15.9928 -80.4989 -568.123 -318.572 -282.258 139.909 -17.1248 -312.504 690.635
2400 2 -19.4032 -68.2747 -18.6828 16.4205 -483.636 -93.3747 -110.996 521.011 -89.7107 -283.444 1040.51
4901 2 -20.9043 -68.3479 -15.355 179.729 -502.776 -386.04 -94.2125 270.497 -183.917 -282.463 864.51
4912 1 -19.4633 -68.0559 -14.6723 591.98 814.207 1089.32 169.616 226.845 8.74666 -735.846 653.545
2316 2 -21.8152 -68.0164 -17.8117 -386.56 -560.589 -144.013 -61.3031 -276.744 16.4983 -266.725 610.884
2494 2 -21.9101 -67.9454 -20.4592 126.009 -464.312 -229.272 -90.8676 600.893 -155.635 -267.92 1202.34
2410 2 -23.5495 -67.5865 -15.6403 196.62 -440.861 -517.116 -161.688 -263.213 -68.398 -290.787 872.419
2486 1 -20.907 -67.716 -19.1682 1203.3 647.022 1005.47 -35.7909 -72.4998 -25.7486 -771.251 510.035
2402 1 -22.041 -67.5738 -16.2644 579.067 867.351 1312.43 100.58 159.052 278.271 -768.116 864.903
2416 1 -24.9615 -67.388 -14.9217 365.035 820.82 1344.09 -458.532 -86.3786 102.416 -752.495 1185.18
4985 2 -20.6868 -66.1644 -19.0839 -607.012 -491.544 -592.415 34.6185 15.5963 85.7315 -275.115 195.538
2407 2 -23.5921 -66.0415 -20.3138 -424.776 -547.082 -169.376 -90.5794 -220.567 103.231 -273.568 560.32
2408 2 -21.5861 -66.028 -16.2031 -340.461 -261.207 -743.627 -106.003 -49.4794 -160.443 -272.556 564.852
2401 1 -24.4227 -65.3232 -19.1512 1082.31 1082.29 896.648 113.162 50.1148 52.7846 -781.042 297.954
2409 2 -23.4838 -65.2514 -17.7671 -459.057 -506.429 -268.008 -43.4094 156.002 -22.4898 -279.234 357.735
4897 1 -20.2206 -64.6155 -18.8105 610.191 787.724 850.319 -73.0022 195.188 479.763 -773.397 931.316
2403 1 -22.3588 -64.71 -16.8117 702.253 600.671 1107.19 -26.3434 125.147 -166.364 -773.837 589.511
4905 2 -18.7094 -64.571 -18.3488 -221.465 -476.792 -653.745 75.2961 -17.6924 -104.858 -283.591 438.882
2406 2 -21.2893 -64.0051 -17.7876 -276.621 -583.332 -530.584 -50.9212 -181.229 -44.4141 -274.068 439.209
11 2 -24.6276 -63.8311 -19.7559 -493.323 -216.02 -302.521 40.9115 -5.01697 -277.029 -267.445 543.806
2507 2 -20.2859 -63.8224 -20.1586 -546.721 -496.935 -650.608 91.8161 -36.9188 -119.5 -272.857 301.104
2412 2 -22.77 -63.804 -15.5736 -492.22 -338.558 -508.152 91.2731 17.3057 204.267 -270.006 421.165
2501 2 -20.832 -62.3756 -14.5003 -359.663 -516.162 -772.187 37.6008 -62.1724 125.063 -263.734 439.168
2506 2 -18.3383 -62.8444 -15.2998 -190.195 -434.94 -516.86 -78.1792 -90.6817 127.762 -272.954 422.653
4900 1 -18.1101 -68.1481 -17.7153 962.528 582.078 1187.91 14.852 -68.9066 338.012 -747.092 799.339
2512 1 -19.3481 -62.7409 -14.0948 599.264 687.265 1068.13 108.893 56.2909 13.5194 -808.335 481.61
2 1 -22.3113 -62.3219 -15.0835 719.375 711.937 1117.58 106.641 105.978 -157.421 -797.847 551.126
7397 2 -15.8479 -68.1751 -14.6107 119.694 -583.215 -674.491 96.8063 126.954 -99.2565 -281.635 820.118
7394 1 -11.7681 -67.6948 -15.925 711.889 257.106 1441.6 54.2308 -174.555 254.996 -754.944 1168.96
7402 2 -13.1124 -67.3744 -15.0607 133.558 -483.337 -650.788 9.9803 -139.346 15.5142 -279.208 755.758
7400 2 -11.9633 -66.8633 -17.2945 -460.07 42.0993 -568.265 -184.136 230.283 -407.854 -270.701 1038.3
4903 2 -17.4866 -66.7356 -17.9334 -431.259 -279.339 -632.263 223.311 -95.4828 -178.19 -283.053 605.168
7401 2 -13.9067 -65.8112 -18.9542 -47.983 -555.79 -149.972 39.3102 463.454 -48.4211 -274.094 934.087
7395 1 -12.4721 -65.5808 -18.1979 842.389 1086.37 1084.79 -56.4848 36.7357 454.817 -780.569 832.669
7398 2 -11.3312 -65.6307 -19.3533 -452.244 -721.002 -640.213 -198.788 -147.632 29.0584 -264.151 493.472
7393 1 -14.95 -65.1706 -20.0631 747.175 988.198 923.854 74.7355 214.673 260.339 -762.084 636.444
4899 1 -17.2184 -65.115 -18.0255 617.015 798.655 1086.5 -141.364 56.9573 28.1937 -763.687 490.103
4902 2 -16.2099 -64.7849 -19.2468 -449.259 -503.485 -516.984 135.884 -196.609 -194.37 -284.416 537.17
4908 2 -16.7421 -64.5021 -16.6409 -464.994 -226.25 -368.115 63.877 -1.739 191.534 -279.848 406.892
7404 2 -12.3754 -64.243 -17.2255 -312.094 -16.3177 -231.944 139.509 110.758 257.397 -281.278 603.45
5003 2 -13.9418 -63.8965 -20.5366 -212.123 -263.044 -503.265 300.237 -177.155 -149.417 -272.588 709.99
4994 1 -12.0963 -63.1056 -16.0964 940.221 754.805 1277.74 -90.9792 41.4666 -2.42038 -796.579 490.807
5002 2 -13.2588 -63.1432 -14.9485 -461.015 -438.922 -283.641 -16.0496 -216.088 71.6144 -262.948 429.269
4997 2 -15.7417 -62.9886 -14.6888 -482.202 -502.996 -538.051 40.8902 106.428 18.6214 -271.357 205.979
2498 1 -16.802 -63.0579 -15.8631 971.165 803.525 797.547 -95.2604 -77.1305 -34.0255 -779.428 278.72
7493 2 -10.6907 -63.2214 -15.2622 -276.355 -452.332 -377.741 183.329 330.593 158.865 -257.093 726.515
7408 1 -14.2894 -68.0034 -14.1001 767.075 854.458 1081.4 75.0107 23.6366 -263.536 -769.903 553.064
2504 2 -16.4873 -61.9201 -16.9381 -536.737 -319.862 -565.057 51.386 -2.13178 -21.1377 -271.867 251.504
2795 2 -19.7698 -48.6607 -20.1161 -510.555 -431.234 -403.267 1.79425 19.4837 -131.919 -261.237 250.297
7 2 -24.2457 -61.3646 -20.6804 -554.166 -574.253 -517.604 18.5225 15.0105 26.5833 -260.857 79.3716
2503 2 -19.5632 -61.391 -19.8091 -441.258 -477.322 -452.116 -42.6045 -6.99221 90.108 -280.752 176.004
8 2 -22.2234 -61.4376 -16.448 -569.87 -535.397 -507.053 -2.03596 2.88825 -82.2199 -262.629 152.6
9 2 -23.1202 -60.1962 -18.5836 -296.961 -418.813 -328.466 28.5684 102.56 131.276 -269.234 312.58
2497 1 -19.3763 -60.0818 -18.8771 673.433 667.882 1107.18 57.9176 -83.0603 -97.1114 -797.043 499.623
6 2 -20.6306 -59.9848 -17.8566 -186.002 -467.407 -560.573 -91.8291 -190.982 50.1004 -262.69 506.297
1 1 -24.3023 -60.1418 -19.665 989.279 560.862 894.961 66.6803 43.5158 13.5476 -806.752 414.247
3 1 -22.1349 -60.1097 -17.2777 888.474 736.667 944.138 45.31 123.945 92.7611 -803.542 335.64
2603 2 -19.44 -58.8207 -19.8639 -475.468 -246.849 -503.629 -68.841 54.782 -157.391 -266.066 396.275
107 2 -24.169 -58.8246 -20.5201 -525.483 -717.666 -575.882 -4.14163 -69.9875 -68.1987 -258.54 241.843
12 2 -22.4364 -58.9403 -16.2169 -585.698 -465.334 -407.274 -34.4082 -77.3491 93.7236 -267.259 269.628
2597 2 -20.799 -58.044 -14.5049 -180.755 -469.591 -618.879 -137.348 119.901 27.3261 -253.348 500.795
98 1 -22.3606 -57.9707 -14.9782 982.313 674.883 984.593 39.0986 42.3511 -166.142 -812.359 433.584
2596 1 -19.6252 -57.3634 -20.5696 1021.25 871.018 976.449 118.011 22.4743 -70.8274 -805.621 276.027
2599 2 -20.1481 -56.338 -19.4732 -626.193 -272.385 -340.29 -41.0004 -40.7018 223.609 -258.293 515.54
103 2 -24.4522 -56.3591 -20.1603 -559.684 -677.51 -486.385 9.83167 128.914 68.2221 -249.231 303.317
104 2 -22.7797 -56.5053 -15.4586 -509.593 -267.481 -500.172 -8.07629 42.0885 -145.914 -261.66 354.696
105 2 -23.3868 -55.5538 -17.8709 -549.343 -458.138 -595.207 -28.2786 -65.9588 20.5328 -268.423 176.976
97 1 -24.559 -55.4112 -18.9025 911.554 740.972 812.827 117.076 -110.823 -99.369 -821.185 359.99
102 2 -20.9817 -55.5425 -17.0593 -407.209 -477.987 -656.747 28.7288 -114.909 17.5028 -262.496 304.342
2601 2 -18.3943 -55.5714 -17.7767 -191.55 -398.452 -726.976 -7.22073 -4.15132 78.9257 -263.174 487.447
2602 2 -18.1427 -58.3795 -14.9307 -324.952 -492.013 -338.403 60.2385 -263.805 0.492862 -253.146 495.488
2505 2 -17.9863 -60.2109 -18.1475 -469.066 -437.476 -610.013 24.0028 24.7301 37.909 -274.726 182.183
99 1 -22.5076 -55.3507 -16.5705 780.542 615.406 1065.4 10.8268 -24.6585 -59.1546 -805.695 410.029
5000 2 -12.0916 -61.5947 -16.7205 -476.582 -134.368 -616.922 32.6539 33.8761 -110.193 -267.837 477.39
4999 2 -13.4285 -61.3251 -20.0262 -484.114 -205.965 -450.296 -107.405 -86.9793 222.814 -270.303 524.734
2499 1 -16.5497 -60.4329 -17.5207 617.895 662.187 972.992 -88.4131 68.8286 95.3631 -795.092 421.038
2502 2 -15.3848 -60.292 -18.5765 -233.941 -489.941 -680.655 63.5576 -45.6218 21.189 -274.535 412.844
4995 1 -11.8517 -60.0506 -17.0243 900.73 748.891 953.541 -140.294 27.9379 -230.066 -797.661 504.027
4993 1 -13.9686 -59.9379 -19.2509 832.84 880.729 981.41 -149.917 -106.977 -83.9811 -782.347 374.39
5001 2 -12.8446 -59.5213 -18.241 -164.734 -456.365 -563.401 -13.6076 146.503 -110.83 -272.05 479.077
2508 2 -16.2661 -59.3596 -16.3454 -553.448 -217.443 -487.504 75.8155 85.9772 147.473 -263.279 446.94
5004 2 -12.2211 -59.1813 -15.7722 -528.444 -298.886 -591.927 -0.501426 -17.1577 160.2 -262.776 386.233
5099 2 -14.1346 -58.7904 -20.4086 -448.713 -113.382 -430.931 30.6927 -3.01332 -144.463 -271.943 415.044
2594 1 -16.6583 -58.0651 -15.4613 814.269 939.587 765.809 -8.92757 -37.7562 -163.32 -817.404 329.639
5090 1 -12.0996 -57.9099 -14.7538 645.584 1083.66 942.139 13.6945 32.3698 -159.616 -808.307 479.668
2600 2 -16.6144 -56.7096 -16.3327 -522.927 -76.4616 -446.027 -21.438 -30.4227 -149.506 -257.93 492.061
5096 2 -12.3667 -56.4855 -15.5182 -568.936 -197.537 -505.258 40.5459 -63.0922 -16.7455 -263.34 368.859
5095 2 -13.727 -56.2078 -19.8198 -629.06 -310.136 -545.719 73.8613 -8.7569 173.457 -254.899 434.669
2598 2 -15.7694 -55.418 -18.5209 -182.479 -381.646 -613.605 72.0076 -121.117 17.165 -257.401 447.346
2595 1 -16.8772 -55.4075 -17.3215 698.47 669.281 1432.57 36.4799 -23.2693 -147.013 -809.482 794.758
5093 2 -15.7659 -57.9262 -14.1778 -415.811 -624.044 -531.632 -0.0248143 -13.6372 50.5772 -256.367 202.212
7589 2 -10.5896 -57.8727 -14.2883 -339.358 -594.619 -590.764 -51.5946 1.78609 53.993 -259.475 284.483
5097 2 -13.3771 -55.1713 -17.4728 -374.397 -493.171 -686.097 -40.3255 -15.6791 -6.53493 -267.873 282.819
5089 1 -14.2112 -55.0687 -18.7926 809.564 745.882 923.634 6.11813 -16.2818 -60.6706 -812.301 190.478
5094 2 -10.7626 -55.4056 -17.2803 -372.888 -531.613 -545.479 74.6242 -41.0541 -54.1157 -266.585 241.112
5091 1 -12.1324 -55.2511 -16.4739 860.719 710.02 780.813 24.2397 47.472 8.81842 -811.372 160.655
244 1 -24.5301 -53.0439 7.00482 919.435 924.441 750.319 -27.0761 37.5798 148.481 -847.73 319.449
9893 2 -10.3472 -67.6343 -15.287 -184.11 -459.796 -686.793 -300.66 83.8281 -53.6023 -275.455 700.714
2593 1 -19.9329 -55.2994 -18.202 722.946 846.946 1167.33 -28.3351 146.468 -24.9456 -807.63 475.796
203 2 -24.5899 -53.9671 -19.5941 -487.258 -472.74 -501.195 -33.4569 36.0757 -236.847 -252.413 419.713
2699 2 -20.0553 -53.812 -18.8186 -464.727 -266.634 -494.385 27.8506 24.2534 -191.455 -263.505 400.065
108 2 -22.6261 -53.8728 -16.0233 -511.222 -272.913 -644.702 37.064 14.2942 15.4378 -265.275 334.465
196 1 -24.4668 -52.7478 -20.6378 718.807 858.031 1234.62 71.2409 -102.35 84.2673 -827.735 530.646
2704 1 -19.3802 -52.4191 -14.3973 771.875 909.142 1034.54 78.6483 -132.78 -180.634 -825.169 470.228
2692 1 -19.7388 -52.723 -19.9571 947.656 709.221 1008.96 -126.532 -165.216 103.948 -817.387 487.405
2693 2 -20.8485 -52.3038 -14.9129 -318.718 -519.409 -622.665 13.615 53.8401 76.891 -253.622 314.086
194 1 -22.3779 -52.3668 -15.5326 918.343 690.927 1203.34 11.4409 34.3658 -9.18814 -818.21 449.379
199 2 -24.1228 -51.3436 -19.8938 -550.423 -242.379 -598.524 58.3072 22.2483 82.8898 -251.627 379.893
2695 2 -19.8181 -51.2232 -19.4218 -505.166 -230.646 -695.005 25.6565 8.26198 35.4428 -255.648 411.659
200 2 -22.4015 -51.2245 -16.638 -545.684 -211.623 -606.633 27.597 -37.956 -80.1976 -260.937 401.962
2689 1 -19.5743 -49.7009 -18.9056 738.734 732.906 1257.09 9.59595 -43.5395 6.66756 -814.073 527.112
198 2 -20.7615 -49.5424 -17.7876 -308.282 -560.535 -510.005 76.5704 -169.742 -79.3527 -256.4 419.947
193 1 -24.3477 -49.7935 -19.5398 786.004 830.26 1009.02 93.5326 145.931 110.102 -819.542 410.276
201 2 -23.2897 -49.3838 -18.3536 -231.943 -511.171 -303.221 -49.6194 214.565 -47.4274 -254.377 464.106
195 1 -22.2041 -49.7284 -17.1858 848.577 946.941 953.037 -60.074 88.4972 -3.16243 -822.751 211.339
2698 2 -18.2625 -52.1874 -15.62 -168.974 -450.036 -338.694 -0.719039 -238.115 10.5958 -255.584 480.139
202 2 -23.4727 -52.0725 -14.373 -250.136 -558.643 -466.798 27.3218 -163.541 -16.5013 -247.137 398.209
2782 2 -18.2347 -53.0025 -20.5858 -208.076 -401.285 -297.232 86.2789 -311.203 -77.9545 -252.47 599.298
2697 2 -18.0888 -49.682 -18.3762 -209.034 -453.761 -624.617 -138.341 -0.613168 -51.1444 -266.329 442.898
299 2 -24.2167 -48.8734 -20.8399 -480.261 -497.88 -460.09 -106.918 104.377 -128.437 -258.821 342.84
7505 2 -10.4059 -63.2576 -7.12939 -264.355 -762.039 -215.084 -98.2588 286.336 83.6478 -241.763 755.354
5291 2 -13.7612 -48.7006 -20.7843 -407.852 -206.827 -308.194 -24.7637 41.1915 -255.633 -263.943 482.994
5196 2 -12.2335 -48.6809 -16.0586 -596.531 -716.128 -654.273 17.7304 -25.8361 -70.4956 -253.624 169.075
2604 2 -16.6364 -54.0567 -16.515 -439.789 -219.537 -562.882 7.15327 24.9221 120.296 -266.537 369.059
5100 2 -11.9568 -53.8369 -15.7406 -543.546 -418.384 -612.344 64.7705 51.7983 39.7587 -257.069 233.21
5195 2 -14.0958 -53.7291 -19.6644 -591.561 -642.985 -489.063 -23.2568 -39.8798 -105.203 -255.379 240.869
2690 1 -16.7504 -52.4869 -16.1086 996.74 865.36 979.904 2.326 6.29552 0.356459 -811.517 124.37
5189 2 -15.736 -52.1984 -14.8711 -402.702 -485.423 -291.32 -52.147 153.713 5.79502 -258.227 328.031
5186 1 -11.9295 -52.3574 -15.1631 773.458 784.805 1169.7 -44.6481 -37.499 -125.671 -826.288 458.498
2696 2 -16.4114 -51.4581 -17.2911 -552.842 13.5031 -544.797 -40.6773 61.6341 -170.885 -258.593 648.244
5192 2 -11.9879 -51.2467 -16.3455 -535.253 -165.006 -427.325 26.7327 1.34272 -178.229 -251.587 454.112
5191 2 -13.6507 -51.2855 -20.2196 -554.977 -550.329 -741.18 -34.526 44.2312 -44.2332 -253.843 225.552
2691 1 -16.5537 -49.9288 -17.9049 910.005 983.925 1048.74 -61.7677 99.1445 82.9738 -807.749 275.761
2694 2 -15.4422 -49.8621 -19.0375 -299.471 -500.799 -525.307 44.6028 -181.861 38.3544 -263.424 394.549
5187 1 -11.944 -49.8051 -17.1182 953.106 905.066 834.636 -30.0987 -27.3868 -149.714 -827.915 287.859
5185 1 -13.9367 -49.833 -19.6389 953.652 679.625 1126.77 -3.34221 -36.2734 -86.822 -811.583 423.196
5193 2 -12.9785 -49.7106 -18.3317 -463.896 -558.357 -363.044 -52.581 152.251 -127.467 -255.276 393.953
2700 2 -16.3023 -48.8115 -16.7319 -566.822 -199.312 -417.607 -1.23298 -33.7371 183.848 -257.303 455.313
5194 2 -13.2431 -52.2226 -14.2372 -373.306 -510.909 -609.541 134.938 -34.8646 -34.9822 -251.275 322.765
7685 2 -10.5153 -52.1242 -14.4416 -143.3 -481.324 -710.103 -42.0232 14.813 31.9453 -250.814 502.942
5190 2 -10.4823 -49.5659 -17.7661 -308.448 -532.389 -604.408 114.699 -125.748 -114.518 -251.13 444.649
5188 1 -14.1344 -52.6558 -20.8087 837.529 423.586 1096.69 93.9224 -2.18417 113.459 -824.265 641.005
4906 2 -18.3502 -68.9914 -13.9468 65.5744 -493.182 -961.136 -140.929 -6.24391 -1.15833 -261.204 923.237
4913 2 -20.9599 -68.4041 -7.44479 -232.776 -875.188 -196.522 159.571 260.014 -26.9281 -231.614 847.752
2422 2 -23.5805 -67.6891 -7.97186 -373.692 -382.981 -713.569 -117.326 -206.927 -47.9654 -266.612 537.679
2414 1 -22.0709 -67.5292 -8.26678 660.196 1089.17 773.956 -148.833 216.075 191.964 -801.413 682.079
2328 2 -21.8342 -67.0689 -9.74633 -638.256 -337.957 -388.318 -16.7483 -113.563 -290.23 -263.101 608.131
4915 2 -19.3833 -66.6897 -13.9336 -522.008 -508.655 -205.669 160.319 -69.0591 271.5 -278.457 639.199
2419 2 -24.9566 -66.4142 -13.6225 -412.932 -218.625 154.425 11.1778 8.77128 428.325 -263.842 894.652
2418 2 -20.673 -65.7777 -11.8078 -478.259 -580.563 -462.492 -3.84466 -129.614 8.38544 -264.751 250.963
2421 2 -23.26 -65.6772 -11.5803 -183.919 -502.381 -205.799 -81.7795 302.02 -14.8199 -255.585 623.938
2415 1 -21.8114 -65.7944 -10.7457 997.795 1231.29 699.831 64.5827 415.727 104.155 -811.264 881.147
4909 1 -19.356 -65.5724 -12.7159 960.673 661.363 876.161 -60.941 100.703 -4.43842 -801.85 336.24
2413 1 -24.6594 -65.3309 -12.3014 979.365 960.874 1095.41 92.1691 128.625 111.087 -817.96 357.902
2424 2 -21.6298 -64.4516 -9.77184 -522.864 -361.645 -155.223 55.8024 23.5624 340.574 -248.743 678.866
2519 2 -19.4625 -64.1983 -13.4757 -600.851 -620.649 -678.802 69.4212 -46.6494 0.0889284 -255.628 160.97
23 2 -24.6615 -63.8679 -12.9008 -539.659 -268.378 -625.965 -28.4229 -22.2057 14.6896 -260.639 330.159
22 2 -23.3058 -63.987 -7.74426 -205.702 -444.806 -381.381 135.471 -362.807 43.5447 -244.944 708.28
14 1 -21.8704 -63.5239 -8.45427 1244.81 1109.87 1197.41 104.08 134.12 -237.539 -836.99 519.419
16 1 -24.8713 -62.3982 -13.5427 865.019 909.299 755.128 -16.6249 27.0015 -173.83 -815.896 335.514
2428 1 -24.9613 -67.6841 -7.16282 738.007 992.728 902.806 -64.7047 76.8632 12.5711 -802.533 284.292
4918 2 -18.6199 -67.1252 -7.37932 166.85 -413.658 -468.249 -27.1206 -352.523 21.3087 -260.857 864.897
2420 2 -21.3174 -66.326 -7.32506 -180.6 -921.061 -332.877 202.678 166.022 68.0124 -227.394 823.722
2513 2 -20.7743 -63.4194 -7.24258 -522.31 -634.43 -125.752 -67.913 160.728 50.4041 -247.013 559.688
4917 2 -18.0612 -65.5413 -11.8001 -459.939 -493.988 -212.03 116.487 74.9455 171.951 -266.902 466.175
20 2 -22.0005 -62.0678 -9.22695 -596.676 -234.051 -328.323 19.7386 -51.2772 -290.134 -244.334 606.456
2518 2 -18.2396 -63.6833 -7.0281 -252.703 -450.047 -321.818 107.465 -414.493 87.4635 -239.522 776.59
2634 2 -15.8052 -54.7373 2.81239 -324.045 -638.995 -406.386 70.8586 -264.956 11.5504 -243.773 553.271
7409 2 -16.0582 -68.2383 -7.44508 92.9061 -1004.23 -383.581 -53.3979 162.836 85.2549 -231.347 1008.9
9905 2 -10.7007 -68.2849 -7.13136 -21.3539 -632.148 -404.679 101.385 337.048 57.8523 -226.405 817.042
7414 2 -13.338 -67.4666 -7.81896 213.013 -347.568 -813.123 77.5301 -71.7902 -16.4391 -257.142 908.999
4910 1 -17.1456 -67.1873 -8.03263 910.405 1079.47 929.147 41.8659 71.1873 55.7002 -809.023 235.656
5008 1 -14.4154 -63.1162 -13.8312 764.462 921.869 926.113 -28.7495 -98.9888 -16.0584 -802.807 241.066
7406 1 -11.736 -67.2941 -7.93465 675.35 1173.21 1206.98 -107.027 -185.763 -62.9162 -811.024 644.656
7411 2 -14.4488 -67.093 -12.8536 -568.985 -137.843 -609.325 -170.77 -137.405 256.388 -267.027 739.078
7320 2 -11.4012 -66.9328 -9.49829 -593.772 -249.21 -258.556 -23.5055 -48.0943 -298.085 -245.986 625.1
4824 2 -17.3389 -66.8333 -9.58477 -697.105 -439.34 -362.411 -130.508 -29.6033 -250.102 -252.893 577.555
4916 2 -15.8724 -66.1799 -7.64548 122.788 -1031.68 -516.272 -107.407 48.9396 8.26978 -222.729 1022.46
7405 1 -14.3765 -65.6945 -11.9755 753.847 782.259 1002.44 -27.6444 -15.6222 -43.6356 -810.151 253.53
4914 2 -15.6376 -65.5069 -10.9855 -484.021 -532.589 -587.643 -51.1958 -148.901 85.7621 -256.19 323.275
4911 1 -17.1188 -65.5211 -10.4667 806.465 1125.1 805.67 -46.5482 226.107 148.256 -816.393 572.359
7407 1 -11.5543 -65.6143 -10.4663 965.543 1282.21 815.957 -11.7006 51.8076 -52.1766 -822.205 432.031
7413 2 -13.0045 -65.7166 -11.1856 -349.557 -555.181 -461.007 66.4071 139.636 122.501 -259.452 385.395
4920 2 -17.3313 -64.2516 -9.4278 -580.57 -333.637 -206.018 166.665 28.0777 294.787 -251.025 674.663
5015 2 -14.3981 -64.5014 -13.0026 -518.442 -330.123 -638.956 14.9959 26.8395 13.4504 -265.325 275.792
7416 2 -11.3356 -64.2345 -9.59554 -485.943 -142.173 -289.191 102.477 162.078 385.153 -247.74 802.865
5014 2 -12.9735 -63.7668 -7.65153 -242.959 -428.58 -516 186.344 -205.299 -0.306123 -239.664 537.531
2510 1 -17.1025 -63.2872 -8.1484 1292.44 889.552 1060.43 -123.644 170.216 -157.679 -845.587 574.497
5006 1 -11.5316 -63.2381 -8.27091 1045.14 1127.46 1227.28 90.5112 -70.2894 -159.879 -838.697 375.555
5009 2 -15.5879 -63.258 -7.51282 -259.849 -708.261 -467.179 95.3581 90.5991 135.451 -240.64 507.971
7412 2 -10.8865 -66.1217 -7.17959 105.843 -887.34 -634.876 85.5691 212.092 35.9111 -230.646 979.893
7420 1 -14.7704 -67.3136 -7.06294 785.742 1141.43 802.547 -170.201 -43.4927 -262.688 -817.468 648.394
10 2 -23.456 -61.8635 -14.1001 -386.309 -595.473 -536.171 -10.4236 -212.127 -82.0067 -261.443 436.3
106 2 -23.2973 -58.3152 -13.7019 -466.732 -488.39 -312.344 -69.4024 -217.886 149.001 -257.042 501.125
2515 2 -18.9665 -61.6649 -12.9276 -708.713 -342.254 -502.211 -44.1378 48.2498 162.109 -253.661 439.235
21 2 -23.5411 -60.8929 -10.9443 -452.445 -631.371 -582.606 -23.4169 -71.4236 99.3404 -250.676 268.741
18 2 -20.8345 -61.1361 -11.3987 -486.877 -534.691 -592.113 134.92 -109.363 -88.8563 -246.04 350.009
15 1 -22.0555 -60.9302 -10.3679 887.218 949.467 944.405 -44.4286 111.222 -133.258 -836.729 316.057
2517 2 -18.4952 -60.5398 -10.6514 -520.511 -651.343 -629.26 -104.601 -51.86 50.1864 -247.664 251.325
2509 1 -19.4253 -60.5662 -11.8942 741.536 986.741 678.161 67.4949 -30.142 -233.124 -826.26 509.032
13 1 -25.0449 -60.4777 -11.2711 835.42 840.841 763.069 52.2569 247.045 -127.388 -830.407 495.606
2608 1 -19.3366 -58.0743 -13.8084 959.352 832.41 1131.21 6.89861 -38.7738 -38.4351 -814.701 276.676
24 2 -21.8161 -59.4201 -9.86098 -620.471 -179.287 -480.064 -17.8819 -92.0466 110.225 -248.474 463.938
2615 2 -19.3899 -59.1192 -12.6478 -478.675 -281.76 -515.779 112.716 -109.738 -6.99571 -265.671 349.067
119 2 -24.9596 -58.9446 -11.7619 -603.413 -434.557 -624.442 68.764 -86.4487 -27.2089 -246.743 267.081
112 1 -24.6984 -57.9633 -12.9841 978.48 745.175 886.835 -32.1308 43.7316 -44.8297 -824.047 237.302
124 1 -24.6789 -57.9054 -7.54911 1238.08 1007.29 865.476 82.0555 226.129 32.4521 -835.86 531.851
110 1 -21.9619 -57.9624 -9.1237 1087.58 946.613 945.351 -33.8395 78.0303 40.2755 -831.528 215.913
118 2 -23.4859 -57.8138 -8.58057 -275.547 -544.429 -517.16 -47.0274 -171.839 -23.6577 -254.887 403.248
2609 2 -20.9329 -57.8847 -7.88821 -322.264 -673.887 -431.775 78.746 147.067 139.662 -242.513 489.009
116 2 -21.5236 -56.7381 -10.0547 -495.713 -366.271 -553.875 114.432 -144.647 -54.8379 -256.006 372.479
2611 2 -19.102 -56.493 -13.3942 -519.87 -90.5575 -585.259 -33.3318 -71.5351 95.4692 -253.228 512.528
115 2 -24.8556 -56.4634 -12.5361 -520.863 -512.452 -594.265 -69.0015 8.63231 133.096 -253.881 271.526
2614 2 -18.3355 -57.4815 -7.75864 -378.907 -588.329 -380.95 -50.4962 -187.581 139.167 -251.519 463.407
131 2 -24.899 -59.453 -7.16336 -685.563 -235.485 -635.095 -9.9134 -8.20123 -30.5992 -248.337 430.939
19 2 -25.4998 -61.3637 -12.512 -659.409 -443.772 -492.718 -65.0562 -87.5781 93.7029 -255.794 316.84
5012 2 -11.5527 -61.7648 -8.95607 -480.923 -299.615 -499.643 82.7554 -61.3305 -148.414 -255.922 366.779
5011 2 -14.3375 -61.8619 -12.7799 -505.969 -278.19 -357.237 -3.47896 -117.318 228.426 -263.206 487.841
2516 2 -17.3705 -61.8021 -8.67858 -670.121 -254.5 -532.338 97.5173 -84.9998 -61.7419 -244.849 442.831
7601 2 -10.7498 -57.4738 -7.87998 -236.238 -636.352 -442.467 8.28171 99.7871 44.0308 -254.012 394.969
2514 2 -15.8658 -61.0521 -10.6359 -260.94 -622.053 -433.913 -25.9111 -127.734 208.505 -254.487 528.437
5013 2 -13.1995 -60.8276 -10.754 -486.957 -531.392 -645.724 -37.5492 58.132 16.436 -255.781 187.896
5010 2 -10.6489 -60.8116 -11.3318 -407.282 -524.247 -268.427 74.7363 -201.382 44.3613 -251.539 439.918
5005 1 -14.5599 -60.8405 -11.5789 964.157 784.576 992.469 -152.522 -91.6734 -271.118 -817.34 594.686
2511 1 -17.1431 -60.6193 -9.75817 1082.61 675.941 849.118 -44.0772 -17.0446 -326.269 -829.716 671.565
5007 1 -11.7725 -60.6872 -10.096 769.436 745.872 1178.98 -98.3797 -161 -171.056 -825.006 610.339
5016 2 -11.6813 -59.1563 -9.64623 -504.541 -325.711 -648.95 11.8538 -12.7317 39.1082 -256.989 290.095
5111 2 -14.8702 -59.362 -12.2297 -636.298 -305.846 -603.693 -48.5837 132.216 88.7723 -253.66 427.38
2520 2 -16.9023 -59.1616 -9.28179 -593.19 -468.522 -579.659 -60.1836 -102.136 -6.83264 -259.396 237.36
5098 2 -13.15 -58.1262 -13.5769 -312.369 -581.353 -474.462 5.23683 -35.1917 56.7895 -259.207 261.723
5104 1 -14.6603 -58.016 -12.99 1065.4 610.885 730.172 -154.544 82.0264 -112.696 -817.858 544.548
5102 1 -11.7082 -57.6348 -9.15482 664.465 921.503 945.405 -42.838 108.889 -84.2145 -819.509 367.608
2606 1 -17.0318 -57.6737 -8.69297 862.931 880.316 1064.86 -102.483 60.9602 -99.4612 -824.37 331.514
5110 2 -13.1842 -57.2834 -8.69933 -507.981 -487.109 -497.001 97.8948 -102.909 -3.8445 -256.129 246.763
5105 2 -15.6789 -57.4152 -7.86262 -340.019 -537.934 -568.366 -48.3808 22.944 36.7142 -251.769 242.414
5108 2 -11.3594 -56.5406 -10.2777 -533.62 -345.342 -536.033 -68.8013 96.4233 -62.616 -255.009 299.607
2612 2 -17.1691 -56.4909 -9.79215 -611.353 -153.178 -643.999 -68.5307 29.226 70.2529 -249.642 507.352
5107 2 -14.7925 -56.6389 -12.2399 -656.52 -467.178 -637.738 -70.7645 -72.4636 -15.2887 -260.153 253.227
5116 1 -14.1509 -57.6968 -7.46962 829.741 1175.17 893.165 -97.0136 94.1458 -302.386 -821.741 656.18
111 1 -21.6335 -55.2569 -10.6339 1057.63 816.525 1117.18 -5.99664 186.479 -235.588 -822.533 589.045
311 2 -24.9612 -48.7593 -12.057 -653.02 -351.97 -483.781 63.7976 -66.4427 -110.703 -242.608 361.308
2605 1 -19.292 -55.0619 -12.6992 946.321 702.232 887.15 -107.016 71.98 33.055 -830.434 319.086
114 2 -20.6855 -54.9571 -11.9287 -550.092 -440.352 -293.102 22.7808 -197.635 48.3164 -253.927 419.075
109 1 -24.6777 -55.0359 -11.8296 967.975 668.814 979.589 184.923 114.544 -78.6224 -837.166 503.588
117 2 -23.1891 -55.0356 -11.1462 -54.5125 -480.51 -542.941 -64.9879 139.068 122.494 -246.82 572.426
2613 2 -18.1924 -54.9201 -11.5235 -628.613 -619.649 -416.77 63.2299 -1.99508 101.368 -248.38 293.072
2711 2 -19.1878 -53.8955 -13.7442 -538.729 -480.293 -518.078 25.9261 4.31453 -74.1479 -253.708 145.604
120 2 -21.3614 -54.2426 -9.4093 -585.823 -533.465 -473.576 -4.72584 -75.5757 151.928 -251.849 309.697
215 2 -24.6998 -53.8549 -12.8482 -601.623 -462.814 -516.429 -84.471 -60.2582 1.70272 -250.048 216.813
214 2 -23.3737 -53.1023 -8.18356 -309.476 -662.628 -521.307 -55.7523 -59.6988 93.4737 -248.603 375.511
206 1 -21.804 -53.0173 -8.54098 994.666 978.842 666.495 22.099 82.2579 -332.91 -836.277 676.022
208 1 -24.8832 -52.4467 -13.6468 1121.7 956.436 738.527 217.051 224.393 -204.499 -831.852 727.089
212 2 -21.5952 -51.6166 -9.32927 -518.908 -249.515 -439.357 -30.0152 35.755 -78.7414 -248.806 287.418
2707 2 -19.1105 -51.3793 -13.2352 -589.516 -437.643 -300.276 -44.7629 -3.72629 204.607 -249.107 440.956
211 2 -25.0881 -51.3117 -12.606 -718.938 -567.627 -497.024 -43.562 3.60031 54.3436 -249.466 230.552
213 2 -23.4409 -50.4026 -10.9062 -111.621 -621.478 -603.954 -14.4481 48.6692 20.4375 -241.768 510.208
210 2 -20.793 -50.3986 -11.4543 -281.742 -570.123 -477.906 -36.0413 -128.612 110.68 -249.862 394.137
2701 1 -19.3064 -50.2321 -12.0529 966.671 946.474 713.764 30.8327 -67.3526 64.7274 -830.214 297.14
207 1 -21.9039 -50.3356 -10.2869 975.447 910.409 1162.21 -79.5283 152.633 -99.782 -834.633 412.3
205 1 -24.9432 -50.2494 -11.4151 822.565 1004.02 968.645 103.305 26.9746 -109.899 -838.13 313.352
2807 2 -19.2369 -48.8357 -12.7965 -612.11 -592.093 -609.726 -10.7665 -14.5082 11.6626 -251.3 41.784
216 2 -21.8443 -48.9549 -9.50249 -553.647 -261.696 -527.888 -2.61876 -74.5068 66.8288 -251.193 329.319
2709 2 -18.2008 -50.3 -10.9567 -377.766 -656.87 -506.826 -18.8359 0.223932 61.3021 -256.721 266.219
2705 2 -20.8954 -53.0079 -7.22907 -279.437 -639.759 -390.268 89.3769 137.107 151.546 -249.901 501.437
5103 1 -11.6172 -55.1133 -10.9828 745.677 966.202 963.778 -0.173484 120.587 -132.392 -816.74 379.88
5101 1 -14.653 -55.1098 -11.8903 784.897 758.437 1008.21 -57.1191 -33.7084 -166.21 -819.425 390.579
5109 2 -13.1443 -54.9472 -11.4345 -357.555 -573.24 -565.988 -35.2573 -23.0893 80.9919 -260.209 264.605
2607 1 -17.2166 -54.9557 -10.2779 664.434 1076.44 771.72 -58.1726 41.716 -51.1571 -828.277 400.347
2610 2 -15.8061 -54.6585 -10.8319 -609.482 -646.122 -540.774 -160.066 -105.318 166.768 -249.987 449.615
5112 2 -11.2609 -53.9993 -9.85739 -459.428 -454.628 -232.275 -40.7406 -79.7124 241.916 -257.361 500.143
2616 2 -17.6044 -53.827 -9.14096 -573.502 -378.978 -534.607 -38.8417 -6.28858 162.939 -252.96 340.703
5207 2 -14.8257 -54.0675 -13.1069 -563.522 -159.393 -476.192 -11.564 -3.03586 -148.071 -256.977 449.287
5206 2 -13.0528 -53.1441 -7.9175 -115.161 -537.43 -290.192 -71.6784 -246.242 152.509 -256.582 634.139
5201 2 -15.7384 -52.9461 -7.50135 -207.317 -571.354 -489.322 -80.8288 118.026 96.4441 -250.342 445.741
5198 1 -11.5724 -52.9974 -8.62501 1134.78 998.424 813.13 46.4378 -199.93 -144.495 -821.878 516.93
5200 1 -14.7053 -52.5502 -13.685 886.997 1064.25 832.797 44.7686 23.6181 -171.868 -822.446 374.521
2702 1 -17.2768 -52.81 -8.01636 985.315 834.866 853.543 26.1696 122.854 -345.049 -830.568 651.677
5204 2 -11.4008 -51.4913 -9.19572 -543.295 -358.951 -650.099 103.612 -29.8815 30.0366 -250.037 320.421
2708 2 -17.536 -51.3505 -8.64269 -571.538 -458.701 -436.886 -46.0304 -4.80329 -52.6865 -255.772 174.421
5203 2 -14.819 -51.5011 -12.4707 -617.107 -172.521 -435.725 35.3373 135.451 251.896 -253.625 631.711
2706 2 -15.6628 -50.5093 -10.1698 -375.544 -597.964 -421.97 -13.3679 -81.5947 63.2598 -253.913 271.688