ITEM: TIMESTEP
1920000
ITEM: NUMBER OF ATOMS
29952
ITEM: BOX BOUNDS pp pp pp
-2.5615833775063237e+01 3.5601128117061187e+01
-1.2527424540019038e+02 1.3525953973438914e+02
-2.1035324467156940e+01 3.4903177627851115e+01
ITEM: ATOMS id type x y z v_StrAtomXX v_StrAtomYY v_StrAtomZZ v_StrAtomXY v_StrAtomXZ v_StrAtomYZ c_PEAtom v_VMS
4896 2 -16.3479 -73.2164 -17.7724 -283.472 64.0989 -600.431 -20.6171 33.8591 -39.7319 -173.541 583.853
2400 2 -19.4837 -69.6688 -18.3796 304.747 -431.778 -143.038 -143.806 597.693 -108.396 -283.389 1257.85
4901 2 -20.9804 -69.6231 -15.0832 299.909 -381.088 -484.949 -198.838 209.511 -213.522 -280.293 965.579
4904 2 -18.3966 -69.7363 -15.7985 -203.652 -662.106 -435.587 -287.2 170.64 65.7558 -321.069 710.928
4912 1 -19.4342 -69.5204 -14.5234 429.161 714.292 1101.46 337.787 256.037 -0.748828 -735.714 938.381
2494 2 -21.9766 -69.4278 -20.2377 -16.7265 -519.308 -88.2729 -58.8478 654.355 -232.766 -265.492 1295.85
2316 2 -21.8991 -69.2582 -17.524 -383.997 -569.639 -124.476 -94.3426 -221.982 59.4135 -267.062 578.888
2486 1 -21.0161 -69.1565 -18.8956 1239.48 807.014 1126.2 -21.6716 -51.4259 31.8042 -769.147 404.042
2410 2 -23.6764 -68.9362 -15.3894 367.777 -522.594 -574.471 -293.854 -294.68 -40.8487 -267.76 1168.85
2402 1 -22.1302 -68.8366 -15.9558 588.181 957.987 1360.28 186.965 110.573 171.951 -782.313 823.173
2416 1 -25.1382 -68.5602 -14.7004 387.407 864.488 1281.58 -326.654 -187.159 30.4744 -765.454 1014.17
2407 2 -23.6917 -67.6704 -19.9503 -433.41 -604.554 -208.31 -53.8871 -258.17 142.19 -266.103 622.74
4985 2 -20.7702 -67.5536 -19.0694 -595.286 -412.291 -617.837 -17.6864 -4.4043 -126.054 -272.382 294.597
2408 2 -21.8687 -67.2585 -15.9988 -344.448 -378.832 -716.413 -219.005 -47.2239 -176.742 -269.321 609.133
4900 1 -18.0873 -69.5987 -17.4821 1064.45 684.31 1080.97 134.048 -86.3718 341.521 -742.146 759.775
2401 1 -24.5202 -66.7056 -18.9443 702.092 1223.58 931.409 -34.0057 196.097 60.6765 -791.596 578.64
4906 2 -18.4704 -70.587 -13.8055 -13.1582 -475.777 -1024.54 -139.705 47.5335 -30.692 -264.604 914.973
7392 2 -12.0289 -72.7153 -15.0669 329.311 -460.09 -907.329 111.622 23.678 44.1499 -274.515 1105.05
4982 1 -16.0293 -71.9731 -16.9902 786.11 523.891 1536.7 215.959 46.5947 -117.483 -808.18 1008.36
7478 1 -10.6909 -71.7463 -15.1801 500.326 324.244 1985.11 93.1661 -210.24 16.3558 -719.51 1629.87
4812 2 -16.7286 -71.7483 -15.513 -654.349 -462.522 -792.711 -111.366 -23.4869 0.612566 -259.719 348.348
7396 1 -13.2862 -71.8326 -15.3681 366.708 148.579 1723.34 139.063 -64.1717 -37.5252 -729.977 1502.84
7481 2 -14.4618 -71.8454 -16.3939 -26.0738 -140.352 -868.001 -155.622 416.139 -198.521 -276.186 1155.89
7486 2 -11.8762 -70.6897 -15.8841 43.9549 -161.843 -1123.54 -145.925 10.2055 -141.628 -306.488 1135.56
4990 2 -16.8012 -70.5643 -17.5976 160.438 -227.761 -690.091 -436.194 216.038 -125.974 -269.853 1141.2
4898 1 -17.2067 -70.5198 -14.7373 175.337 635.897 1174.61 467.073 35.3799 8.09311 -733.222 1186.95
7397 2 -15.972 -69.6025 -14.3784 342.449 -502.454 -593.175 178.771 166.492 -98.8955 -285.683 1003.55
7394 1 -11.8727 -69.0442 -15.7334 962.008 290.533 1331.36 17.4326 10.2565 321.218 -742.884 1070.55
7402 2 -13.2027 -68.778 -14.8476 93.1786 -541.254 -821.043 -3.12578 -43.6101 70.0644 -284.121 823.866
7400 2 -12.1249 -68.142 -17.0002 -475.812 -171.422 -596.997 -136.888 322.463 -340.709 -282.213 927.705
4903 2 -17.5674 -68.0851 -17.5815 -493.678 -369.645 -633.536 181.979 13.9701 -64.4419 -282.658 405.813
7401 2 -13.8437 -67.235 -19.0418 -94.5822 -480.562 -138.324 42.9612 397.993 -185.398 -278.401 847.265
7395 1 -12.4687 -67.0127 -18.1068 965.095 821.319 976.216 36.7647 35.2206 475.751 -773.116 842.133
7398 2 -11.1781 -67.0671 -19.0999 -115.699 -756.955 -526.362 -100.188 -170.692 -95.2771 -264.301 679.167
7399 2 -13.8509 -70.9771 -14.1657 -550.963 -65.9748 -802.124 -215.138 -191.2 226.244 -275.487 906.746
4899 1 -17.3357 -66.5352 -17.7432 760.819 592.405 990.849 -170.216 -28.5021 177.743 -774.045 551.499
7408 1 -14.3326 -69.4225 -13.9085 835.927 749.919 1079.51 80.5418 153.551 -190.272 -755.909 535.246
5034 2 -10.3858 -62.4812 2.86085 -12.2746 -646.614 -173.64 1.59721 -295.767 -25.4949 -230.691 768.412
2409 2 -23.6472 -66.3719 -17.5805 -556.065 -523.85 -291.67 -27.6595 27.7211 28.7351 -276.103 263.634
4897 1 -20.2718 -66.0647 -18.8606 637.75 645.513 840.294 -57.8671 87.5577 472.835 -782.031 862.135
2403 1 -22.4347 -65.9149 -16.7104 573.757 745.813 1061.16 53.0624 69.217 -64.9087 -787.848 467.723
4905 2 -18.8142 -66.0319 -18.2451 -292.388 -521.236 -489.61 50.9318 100.837 -141.582 -276.429 380.207
2406 2 -21.3062 -65.4568 -17.7603 -340.089 -554.458 -479.459 -89.6406 -169.271 -20.0725 -265.821 383.112
2507 2 -20.3211 -65.1962 -20.1602 -459.76 -308.438 -506.449 111.055 -59.7725 -137.878 -279.88 369.99
11 2 -24.7375 -65.3565 -19.8531 -430.204 -345.67 -279.356 -25.8214 11.947 -256.659 -267.955 466.046
2412 2 -22.6073 -64.7859 -15.5798 -474.928 -615.97 -564.44 11.3055 -9.53795 105.404 -265.845 221.961
2506 2 -18.372 -63.9534 -15.1483 -559.513 -482.115 -507.808 -24.7375 -103.265 30.274 -264.849 203.073
2501 2 -20.8653 -63.5449 -14.2642 -209.009 -441.831 -652.014 -197.02 15.3408 -18.3021 -260.335 515.248
2 1 -22.303 -63.3935 -14.9379 743.592 696.478 966.085 -90.9961 26.6201 -87.6239 -816.29 334.972
7 2 -24.1822 -62.7981 -20.2509 -424.663 -146.485 -496.945 -12.1319 9.0334 106.42 -263.794 370.644
2503 2 -19.7205 -62.5838 -19.9213 -533.946 -375.748 -500.566 -21.5307 -108.898 55.5865 -278.164 259.031
8 2 -22.2503 -62.3191 -16.0965 -463.908 -674.179 -533.886 52.505 -37.6779 -7.46834 -258.54 217.009
9 2 -22.95 -61.3703 -18.4302 -429.878 -513.089 -564.345 -29.198 58.7979 73.9878 -259.953 207.769
6 2 -20.5307 -61.162 -17.849 -444.593 -437.806 -641.081 -112.512 -137.283 120.385 -263.762 421.878
1 1 -24.2127 -61.3723 -19.4243 786.379 855.754 899.788 46.4015 -23.4558 156.065 -804.304 301.639
2497 1 -19.4407 -61.3356 -18.9931 835.272 637.317 885.788 3.47038 49.3397 -115.708 -804.324 315.027
3 1 -21.9757 -61.1809 -17.1849 711.736 784.884 972.891 86.0303 -40.3006 -37.5204 -811.239 292.83
2512 1 -19.3702 -64.097 -13.8728 928.874 811.963 988.897 101.5 78.9353 -194.238 -799.004 432.519
2500 1 -19.7123 -63.8507 -20.8966 572.593 1055.19 699.794 -64.5146 -54.9171 -56.5634 -758.235 467.788
2505 2 -17.9262 -61.4757 -18.4582 -77.6769 -423.981 -391.581 8.34719 216.758 51.6551 -266.118 508.844
7529 2 -10.8297 -64.5102 6.89896 -618.076 -669.441 -581.167 -95.1688 -28.7039 -23.4861 -229.144 192.858
9893 2 -10.3496 -68.994 -15.0514 228.406 -461.808 -665.475 -299.508 290.947 41.7951 -272.48 1089.38
7393 1 -14.9709 -66.5131 -19.9299 650.937 838.723 995.178 -50.5865 -28.1849 512.264 -769.868 941.501
4902 2 -16.2203 -66.3362 -18.9085 -223.23 -544.612 -313.589 66.0609 -229.448 -176.601 -275.796 589.073
4908 2 -16.9145 -65.6911 -16.4616 -428.735 -527.719 -510.999 72.2684 37.7792 63.2162 -278.95 200.901
7404 2 -12.4887 -65.6333 -17.2763 -405.534 -303.289 -305.125 98.9861 59.7691 145.381 -281.693 337.325
5003 2 -14.3833 -65.1537 -20.4502 -345.166 -230.571 -534.134 -26.3081 -17.6438 -220.302 -288.357 468.086
7493 2 -10.8851 -64.6638 -15.3364 131.773 -323.534 -377.288 114.283 380.952 -17.9102 -265.391 842.724
5002 2 -13.5202 -64.5511 -14.9756 -404.803 -453.893 -238.442 9.07171 -216.106 99.3653 -264.654 456.317
4994 1 -12.364 -64.5189 -16.1209 1031.42 553.44 1206.83 -214.003 36.5684 57.9588 -788.232 703.246
4997 2 -15.9167 -64.1161 -14.5671 -638.279 -479.488 -476.897 72.5669 102.522 -10.7687 -263.919 270.759
2498 1 -16.9699 -64.2947 -15.7495 621.425 589.644 772.146 -67.7348 78.0611 -22.0553 -797.24 249.04
2504 2 -16.7088 -63.2283 -16.9082 -518.598 -349.77 -616.502 19.0178 54.0661 -85.6878 -263.833 294.107
5000 2 -12.423 -63.0476 -16.7465 -407.451 -184.692 -624.827 101.034 70.3372 -27.8814 -274.188 439.424
4999 2 -13.4678 -62.5836 -20.2337 -492.441 -587.533 -654.273 159.934 13.9086 20.7447 -282.318 313.77
2499 1 -16.5671 -61.7487 -17.5284 931.183 751.05 1264.45 -49.7377 81.7405 -55.3051 -794.612 490.089
2502 2 -15.2717 -61.7173 -18.5421 -59.7029 -394.225 -419.103 6.62262 -304.199 114.082 -267.301 661.539
4995 1 -11.9962 -61.5089 -16.9944 656.607 838.502 955.874 -1.03625 -130.236 -14.9586 -792.414 346.078
4993 1 -13.8733 -61.3519 -19.3563 948.804 400.317 770.433 -41.629 -196.326 -207.956 -786.325 696.698
5001 2 -12.7633 -61.0225 -18.2953 -615.95 -538.694 -593.582 9.36042 -3.02717 -22.593 -269.154 81.0088
2508 2 -16.4491 -60.6998 -16.3228 -494.845 -402.275 -528.845 -41.2545 -70.4097 163.571 -264.231 336.33
5004 2 -12.3186 -60.5291 -15.7461 -548.218 -95.8569 -385.255 -16.8783 6.14153 276.551 -263.123 622.798
4998 2 -10.4869 -61.2886 -17.446 -524.84 -441.613 -711.199 134.246 -120.303 -56.7213 -267.916 405.343
5099 2 -14.2212 -60.2093 -20.3715 -528.065 -425.173 -566.665 -26.3919 78.412 -46.1961 -267.272 207.329
4915 2 -19.2902 -68.2097 -13.6856 -488.642 -516.69 -306.834 42.0616 -107.984 290.292 -279.738 576.227
4913 2 -20.9986 -69.7389 -7.34299 -143.362 -818.981 -234.125 117.756 236.76 38.1215 -232.948 785.813
2422 2 -23.6684 -68.8324 -7.77426 100.964 -380.639 -661.146 -1.06932 -153.84 -44.4522 -257.49 722.946
2414 1 -22.0462 -68.74 -8.04956 1088.53 1168.62 584.709 -36.9799 -31.858 252.211 -806.97 706.101
2328 2 -21.77 -68.4093 -9.5477 -675.163 -548.829 -344.012 6.01196 -180.914 -224.7 -255.358 577.542
2419 2 -24.9311 -67.5953 -13.4991 -382.336 -636.92 -304.527 47.7086 200.706 62.4622 -271.609 479.643
2421 2 -23.2667 -67.1898 -11.3843 -209.196 -522.672 -206.968 -85.7818 307.957 29.9894 -253.805 638.95
2418 2 -20.6869 -67.0663 -11.733 -509.112 -524.364 -243.236 -38.1358 -323.038 30.3422 -255.663 628.62
2415 1 -21.8478 -67.1534 -10.5535 1176.46 1104.73 755.59 127.988 176.551 64.5501 -819.649 554.296
2413 1 -24.6136 -66.71 -12.1723 971.141 997.877 904.858 37.1551 -51.9909 -181.711 -826.522 343.784
4909 1 -19.3854 -66.9777 -12.6204 943.258 628.144 970.762 -10.9809 278.434 -80.3384 -807.183 600.85
2420 2 -21.1992 -67.6298 -7.10898 -108.989 -992.175 -296.456 101.811 205.725 20.1743 -231.459 899.376
4918 2 -18.5531 -68.5491 -6.98487 56.2299 -405.778 -598.532 36.5823 -296.306 65.5621 -261.416 787.376
4917 2 -18.1582 -66.9463 -11.507 -295.302 -486.716 -168.033 36.3219 245.164 219.68 -256.002 637.376
2428 1 -25.0912 -68.9004 -7.04039 820.664 1190.44 794.619 -169.58 -99.2953 -137.92 -823.833 565.654
7308 2 -10.3494 -70.9421 -13.8308 -414.961 -99.4763 -735.355 250.959 166.109 451.553 -267.731 1089.35
7409 2 -16.0597 -69.621 -7.37072 82.0063 -893.891 -385.006 -32.645 138.884 50.3571 -234.805 885.093
7414 2 -13.451 -68.7126 -7.9654 175.591 -399.916 -508.269 30.2453 -243.775 -55.6482 -262.41 771.764
7406 1 -11.8445 -68.6227 -8.06558 778.635 1221.79 922.398 -243.529 -94.5413 134.23 -805.513 641.975
4910 1 -17.1553 -68.5026 -7.77233 616.653 1197.02 1006.83 38.7111 143.9 -56.4932 -811.208 582.072
7411 2 -14.3649 -68.4961 -12.6312 -545.02 -148.906 -560.634 -44.7329 34.7723 257.613 -275.014 609.966
4824 2 -17.4624 -68.0888 -9.32534 -593.796 -535.482 -187.913 -76.3415 -221.691 -278.26 -244.618 735.992
7320 2 -11.4733 -68.2637 -9.5951 -604.377 -632.621 -316.078 51.8484 -58.2185 -39.1501 -257.247 338.951
4916 2 -15.9256 -67.5087 -7.43315 -58.9122 -968.582 -600.442 -112.033 -115.609 1.95131 -227.62 840.18
7405 1 -14.3356 -67.0539 -11.9119 731.425 855.518 884.051 42.5093 77.8226 -176.035 -810.242 369.201
7413 2 -12.958 -66.7689 -11.1736 -278.079 -492.963 -367.668 19.4354 222.654 85.4277 -258.439 454.644
7407 1 -11.4628 -66.9722 -10.4756 1017.25 1014.37 694.553 -111.151 95.6051 -4.1999 -814.852 409.572
4914 2 -15.5622 -66.8943 -10.9208 -304.85 -570.795 -582.596 -61.2526 -129.385 58.3296 -253.9 381.692
4911 1 -17.0657 -66.8561 -10.299 1195.2 1035.1 736.191 179.636 177.167 1.08554 -826.487 594.82
9905 2 -10.7877 -69.7363 -7.42209 44.3384 -499.281 -243.975 78.1022 437.774 63.955 -225.966 909.628
7412 2 -11.0929 -67.5842 -7.08025 42.36 -884.478 -487.613 -15.3195 297.053 -83.7919 -232.381 967.052
10 2 -23.5648 -63.077 -13.9556 -98.7292 -586.251 -553.66 28.8911 -162.895 8.66204 -251.133 552.435
19 2 -25.3966 -62.7902 -12.2075 -742.115 -540.815 -580.562 -48.1596 23.4551 112.148 -251.21 283.621
2424 2 -21.7 -65.9026 -9.56326 -594.36 -437.51 -374.039 24.5286 -23.2402 228.394 -249.203 445.536
2519 2 -19.4074 -65.6583 -13.4616 -473.69 -360.208 -594.178 -56.2499 -2.30529 18.0873 -269.124 227.065
23 2 -24.5137 -65.2161 -12.7498 -483.44 -355.748 -490.926 -120.348 -7.55194 -92.0754 -256.175 293.893
22 2 -23.2275 -65.1294 -7.61371 -452.601 -561.989 -356.623 87.83 -229.756 3.81006 -241.838 461.764
14 1 -21.8132 -64.8105 -8.36095 1171.83 1013.86 748.865 81.7147 43.3052 -177.737 -846.021 507.411
16 1 -24.9159 -63.7631 -13.3426 965.13 953.745 825.749 119.481 75.4721 -274.25 -818.765 550.931
20 2 -21.8636 -63.3518 -9.04895 -691.825 -493.944 -583.169 11.4207 -126.917 97.8508 -250.944 326.958
2515 2 -18.9295 -63.1433 -12.6809 -678.246 -343.478 -535.1 -22.2542 -58.093 162.414 -256.777 418.789
18 2 -20.9683 -62.4062 -11.2922 -470.455 -607.473 -452.111 -22.9448 -242.413 16.4843 -243.162 447.561
21 2 -23.5713 -62.247 -10.5621 -444.517 -630.517 -563.657 -121.68 -83.3552 112.09 -247.742 359.98
2517 2 -18.6202 -61.7601 -10.5145 -258.736 -673.623 -510.957 -101.564 56.0356 -0.641097 -240.501 414.09
15 1 -22.0568 -62.2086 -10.0613 936.599 720.35 862.3 103.513 48.6565 14.0169 -836.886 275.777
2509 1 -19.5333 -61.9605 -11.7821 869.552 926.175 735.556 9.84659 108.451 -174.52 -831.776 394.583
13 1 -25.0128 -61.7655 -11.0665 793.204 1148.19 714.723 109.094 92.6037 -335.021 -832.671 747.115
2615 2 -19.5561 -60.6199 -12.6686 -537.06 -477.525 -506.507 -32.839 -19.6024 0.334541 -257.254 83.9478
24 2 -21.7969 -60.7179 -9.59577 -606.9 -191.532 -530.634 -28.3329 -70.5218 40.7823 -250.325 411.079
2513 2 -20.6035 -64.8716 -7.36421 -373.115 -698.546 -32.354 -84.7627 242.814 94.7771 -240.06 747.192
119 2 -24.7913 -60.2898 -11.7943 -481.164 -212.362 -242.715 55.5496 -87.5019 -233.881 -246.557 511.219
131 2 -24.8566 -60.7455 -7.05334 -609.579 -208.475 -522.401 -136.896 -10.607 -87.0531 -244.176 461.314
7505 2 -10.4705 -64.8472 -6.96629 -616.682 -824.296 -296.563 -123.711 126.932 -17.6612 -241.152 554.279
5008 1 -14.5934 -64.4629 -13.7528 774.259 882.347 914.249 14.4681 -50.3804 -147.933 -802.285 300.074
5015 2 -14.6333 -65.8793 -12.9844 -466.145 -146.05 -658.773 -109.626 82.5228 -30.7994 -264.084 510.445
7416 2 -11.1496 -65.7268 -9.49489 -524.123 -344.542 -360.698 85.1871 44.6655 305.601 -252.113 580.982
4920 2 -17.1252 -65.6093 -9.29697 -632.728 -460.409 -265.086 81.9666 -0.664818 306.19 -249.249 634.757
5014 2 -12.9467 -65.0528 -7.70187 -362.027 -601.189 -540.738 54.6356 -216.84 81.0922 -242.845 464.906
2510 1 -16.9893 -64.554 -8.04861 1027.06 1142.25 956.215 -114.549 300.897 -110.593 -835.471 611.654
5009 2 -15.526 -64.4902 -7.38722 -431.278 -652.836 -508.622 -39.2185 39.3745 81.8989 -246.703 259.464
5006 1 -11.4669 -64.7187 -8.24137 891.053 1055.85 1164.02 -91.8678 -10.4192 -234.279 -839.853 496.982
2516 2 -17.3506 -63.0554 -8.63202 -582.511 -229.2 -520.078 50.7409 -88.6974 -37.8002 -253.877 377.2
5011 2 -14.2913 -63.2676 -12.7164 -462.147 -319.878 -422.274 -28.1734 -161.715 191.414 -263.98 454.876
5012 2 -11.5443 -63.2488 -8.9041 -510.285 -362.996 -430.82 -32.5758 50.137 -148.301 -251.579 304.973
2514 2 -16.0107 -62.3957 -10.7208 -356.726 -516.641 -295.16 -121.957 -188.704 211.872 -261.587 570.374
5010 2 -10.8182 -62.1704 -11.2826 -209.752 -474.685 -137.88 -19.0888 -286.513 107.947 -255.365 613.772
5013 2 -13.3692 -62.3138 -10.5252 -310.965 -653.339 -702.492 50.8178 1.51143 94.512 -247.634 413.541
5005 1 -14.5984 -62.2575 -11.5083 896.419 855.904 901.399 -36.5067 -58.8883 -188.04 -820.214 349.782
2511 1 -17.1495 -61.9193 -9.6929 1163.67 894.061 829.261 -50.2272 114.022 -76.9558 -823.453 398.366
5007 1 -11.8607 -62.0963 -9.97706 924.083 734.025 1224.06 -33.235 -151.819 -222.349 -830.205 635.529
5111 2 -14.5906 -60.7473 -12.0817 -577.99 -147.503 -511.529 21.5702 0.604069 -40.9389 -256.304 409.33
5016 2 -11.8468 -60.6456 -9.39072 -579.965 -482.023 -649.201 2.61815 9.09299 69.9059 -250.401 189.991
2520 2 -16.9844 -60.4014 -9.1872 -597.298 -171.916 -530.911 -162.806 -166.671 105.419 -255.787 594.4
4924 1 -20.1018 -68.6534 -6.46133 1019.74 1163.16 699.511 -108.406 2.26721 -128.497 -807.626 503.833
2431 2 -24.7274 -68.6418 -5.52756 -767.235 -413.207 -455.296 101.67 50.9123 265.449 -236.695 601.982
4927 2 -20.0097 -68.5134 -4.89812 -757.572 -403.464 -324.719 50.3791 -9.36776 263.626 -249.381 613.067
2432 2 -22.9381 -67.5891 -1.03127 -590.601 -393.332 -145.579 223.155 -388.211 -172.967 -258.898 916.755
2433 2 -23.4729 -67.3029 -3.60155 -439.641 -707.247 -247.431 -35.4035 34.835 16.7268 -242.243 410.163
2425 1 -24.7339 -67.3275 -4.57287 1370.25 1171.58 569.238 23.5605 90.0062 -275.214 -849.51 880.426
4929 2 -18.3688 -67.4409 -3.15039 -512.387 -594.662 -397.778 -89.6668 41.23 -37.7275 -251.304 250.647
2430 2 -20.9624 -67.1454 -2.83463 -528.081 -620.788 -368.679 49.086 -333.557 -5.79421 -249.368 624.413
4921 1 -19.7631 -67.2697 -3.88776 952.17 1250.65 718.283 -22.2596 183.931 -236.905 -832.143 696.383
2427 1 -22.4556 -66.842 -2.40022 1145.61 946.058 856.262 -13.0001 440.998 23.9767 -838.435 807.139
7420 1 -14.784 -68.665 -6.97863 664.626 1195.21 963.01 -17.2623 -24.9168 -209.168 -804.889 588.429
7332 2 -12.2959 -70.2932 -2.13265 -615.256 -196.71 -413.69 124.57 110.105 -152.883 -122.178 533.373
7418 1 -12.4471 -69.5144 -0.839012 1474.47 1035.95 1304.08 -98.2321 130.64 276.167 -935.821 674.961
4928 2 -16.1725 -68.1645 -1.46634 -510.252 -621.819 -280.309 -59.374 207.879 -129.107 -226.615 530.28
7423 2 -14.3413 -68.2057 -5.59247 -667.738 -434.729 -672.445 153.17 -137.902 298.989 -246.468 671.587
7424 2 -12.2684 -67.8953 -1.1159 -642.319 -489.305 -605.861 13.3462 -15.3355 -218.498 -211.389 404.51
4926 2 -15.8053 -67.1452 -3.78395 -412.12 -715.916 -552.051 163.24 -190.471 -2.68481 -234.144 508.097
4923 1 -16.9033 -67.2219 -2.61347 1036.4 1247.92 930.208 -91.2045 165.413 51.0002 -857.007 439.686
7425 2 -13.2036 -67.0495 -3.416 -404.613 -797.986 -192.928 48.9791 201.251 108.023 -223.626 668.231
7417 1 -14.3969 -67.0005 -4.50816 1104.5 1509 715.781 -149.093 216.81 -383.763 -862.031 1059
7419 1 -12.1344 -66.782 -2.21232 1066.26 1226.99 1060.12 -87.574 -50.0743 79.7235 -888.548 276.504
7422 2 -10.7025 -66.7564 -3.0038 -480.613 -724.126 -333.943 -5.39487 -200.43 91.8512 -226.354 512.289
7426 2 -14.124 -69.5457 -0.558401 -42.1036 -726.175 -782.113 -18.9359 80.3966 -237.897 -191.715 836.421
2518 2 -18.0511 -64.9952 -6.93221 -495.346 -478.129 -327.519 92.562 -397.371 0.595835 -251.504 724.56
2531 2 -19.6804 -65.9528 -4.89069 -531.946 -47.4543 1.75255 68.5382 -213.034 -326.586 -256.135 855.109
35 2 -24.6746 -66.0721 -5.58572 -694.504 -166.518 -283.923 9.29361 -211.524 -183.05 -246.58 682.33
2436 2 -22.6806 -65.2554 -2.35739 -650.451 -337.678 -520.658 -52.8989 -139.552 -52.2796 -250.37 386.129
2543 2 -20.1533 -65.2236 -0.258462 -606.22 -699.29 -181.294 -36.2493 -66.2463 -354.307 -237.235 788.975
28 1 -24.5014 -64.8462 -6.66885 1144.72 1090.1 922.653 90.8735 157.776 -68.887 -846.83 392.248
2524 1 -19.4157 -64.7982 -6.08416 1284.92 1046.03 1287.18 45.3678 351.648 -111.28 -819.332 686.956
2536 1 -19.8583 -63.7468 -0.822576 933.13 1027.03 801.614 -43.502 62.2282 -43.6204 -839.877 247.922
26 1 -22.5906 -63.6747 -2.08808 784.85 977.752 816.643 -52.4541 318.502 80.0362 -827.43 603.234
2530 2 -18.4027 -63.6937 -1.4645 -279.516 -604.027 -507.151 7.96132 -140.114 101.826 -245.291 416.469
2525 2 -21.0778 -63.3285 -1.76291 -459.541 -618.525 -538.22 19.2108 -53.6007 63.8353 -254.128 202.259
34 2 -23.5905 -63.2176 -1.00149 -424.109 -786.907 -693.804 6.20889 -44.701 42.5988 -250.145 343.609
31 2 -24.2581 -63.319 -6.16472 -656.022 -130.457 -575.876 108.694 -55.5725 -105.161 -252.317 564.274
2527 2 -19.4473 -63.3024 -5.45187 -534.172 -127.944 -453.953 -63.2834 -131.315 146.333 -258.15 516.579
32 2 -22.913 -62.7653 -3.42402 -654.175 -571.753 -455.248 -1.15825 -89.5469 -156.47 -242.899 357.04
25 1 -24.4436 -61.7769 -5.85597 1067.71 1116.64 770.437 92.5256 165.833 -73.7046 -830.322 479.366
2521 1 -19.4941 -61.7687 -4.98912 912.773 994.299 1045.75 -83.096 163.919 -75.422 -836.233 363.148
27 1 -22.3984 -61.3264 -3.83724 1060.16 940.793 446.927 -11.1718 -11.3364 1.9674 -835.275 563.801
30 2 -20.8158 -61.3596 -4.19394 -326.736 -560.555 -578.133 -58.0278 -146.838 132.947 -247.991 432.319
33 2 -23.2179 -61.005 -5.1164 -603.404 -636.371 -518.673 83.6543 -46.643 236.998 -248.121 455.065
2627 2 -19.5134 -60.6753 -6.20389 -603.517 -277.973 -483.452 28.5197 39.5007 -158.968 -245.003 405.267
36 2 -22.6686 -60.3435 -2.61603 -689.1 -579.973 -358.837 -2.00825 -50.9377 116.082 -247.227 364.914
40 1 -24.8434 -63.6606 -0.0995341 1223.73 962.324 630.058 56.8823 194.784 80.2215 -830.631 639.08
2529 2 -18.0765 -61.5727 -4.22097 -187.693 -660.74 -536.842 29.0505 -13.4763 -6.19123 -246.026 428.61
5027 2 -14.2492 -65.5833 -5.38748 -553.529 -235.216 -233.263 79.3827 -172.019 -176.328 -236.415 550.363
4932 2 -16.8135 -65.7042 -1.93012 -640.374 -320.961 -530.994 112.6 -8.37674 51.7082 -228.015 354.005
7428 2 -12.403 -65.284 -1.61305 -565.985 -449.961 -603.089 -39.7263 19.923 129.189 -228.606 274.114
5123 2 -14.0882 -60.5147 -6.7536 -505.167 -625.434 -502.751 -36.9588 64.7364 -11.932 -249.041 178.488
5020 1 -14.1138 -64.62 -6.68494 870.088 979.084 1164.77 48.1904 92.2452 -134.531 -853.712 391.647
2522 1 -16.8625 -64.1198 -1.78722 982.817 1000.92 966.915 -187.247 -7.6129 -101.103 -864.571 369.99
5018 1 -12.0331 -63.7901 -1.27381 919.416 1175.69 1032.24 -113.597 78.4504 -113.585 -871.947 381.278
5021 2 -15.855 -63.7416 -0.628057 -336.939 -762.338 -538.684 66.0017 68.8902 25.1867 -229.225 406.266
5023 2 -13.7141 -63.1186 -6.18453 -591.464 -295.877 -585.418 -23.9353 -47.9387 172.541 -237.529 428.422
5026 2 -13.2534 -63.0414 -0.524188 -338.698 -745.082 -716.953 -59.2466 88.0824 146.965 -227.006 503.101
2528 2 -16.422 -63.2957 -3.09772 -576.421 -348.346 -470.17 91.9801 -32.0397 -109.024 -238.653 321.238
5024 2 -11.9005 -62.8383 -2.58038 -638.654 -585.846 -559.847 59.6399 122.877 -119.225 -227.902 321.633
2523 1 -16.5686 -61.8038 -3.72485 961.558 1260.27 896.683 -217.012 159.881 33.8592 -842.322 578.122
5017 1 -14.0258 -61.6532 -5.60677 1086.96 1036.24 915.792 -100.525 63.4307 -157.009 -842.144 373.539
2526 2 -15.4623 -61.6743 -4.87192 -268.457 -651.053 -411.583 67.1603 -165.486 131.408 -250.479 509.507
5019 1 -11.8695 -61.4136 -3.26265 990.022 1216.58 879.532 -61.5382 -121.829 -38.7482 -856.447 385.953
5025 2 -12.8351 -61.3578 -4.53444 -353.082 -706.283 -297.931 44.6988 149.564 71.1323 -243.355 485.338
2532 2 -16.3509 -60.7233 -2.49153 -657.896 -358.577 -222.532 55.6972 -97.2256 279.857 -240.633 649.189
5028 2 -12.1761 -60.3633 -2.04522 -493.203 -616.439 -130.986 29.1114 80.0186 287.284 -237.782 678.508
7517 2 -10.5805 -63.8348 -0.55894 -227.266 -672.985 -569.522 -74.3599 117.973 0.0102625 -228.373 470.74
5022 2 -10.372 -61.1794 -3.90243 -374.859 -750.314 -529.44 -17.4788 -134.726 39.066 -235.36 408.377
4930 2 -19.1419 -69.5557 1.49767 -46.3221 -636.644 -474.217 88.6433 410.21 -9.20494 -227.395 898.678
2434 2 -24.7514 -69.3324 0.303719 -296.306 -677.088 -417.982 -81.4984 -411.418 -140.308 -250.692 836.807
2459 2 -25.4774 -68.9754 5.2799 -575.385 -691.529 -506.674 -42.1471 94.5722 89.2434 -234.758 286.784
4925 2 -22.0754 -69.1578 0.715763 36.6675 -480.111 -838.056 -328.013 42.8131 103.773 -244.121 969.921
4937 2 -20.0978 -69.1893 5.44681 -678.32 -615.573 -373.685 -115.39 236.832 -31.9617 -229.131 537.495
4943 2 -21.198 -69.145 3.00266 -677.214 -563.831 -315.927 -64.7734 -155.917 -25.3961 -226.036 435.743
4936 1 -20.6407 -68.9804 1.49092 1296.81 860.662 1045.16 107.277 -108.844 -105.54 -852.983 497.268
4948 1 -18.8201 -69.088 6.39459 1048.57 1234.14 829.99 84.1498 123.4 -212.622 -853.555 570.372
2446 2 -22.7316 -68.9981 5.27476 -136.28 -628.232 -363.315 -70.0054 -204.842 34.1415 -220.347 570.922
2426 1 -23.4293 -68.4989 0.186397 867.957 1067.86 900.547 -24.4572 320.901 -2.05503 -789.262 587.58
2438 1 -21.3215 -68.667 4.55663 1223.66 1144.67 898.626 155.427 -117.333 106.369 -874.542 483.661
2452 1 -24.1514 -68.2777 5.82556 1124.62 1515.34 833.46 -54.0461 -77.5268 -207.171 -883.813 711.865
2443 2 -24.3646 -67.4441 1.34323 -202.945 -545.823 -581.083 -49.8663 -536.033 60.6468 -285.463 1005.68
4939 2 -20.286 -67.4166 1.21351 -647.7 -358.06 -676.393 240.164 -54.9465 -62.5993 -234.867 535.606
2444 2 -21.1925 -67.056 4.40331 -808.425 -356.87 -487.248 14.3367 76.3685 -101.616 -227.653 459.476
2441 2 -24.1383 -66.8194 5.19452 -490.914 -378.17 -106.373 -9.14377 -8.47341 12.237 -163.618 343.72
7432 1 -15.4503 -68.743 -0.186456 1381.47 1066.95 1016.07 67.2895 -74.3336 97.8409 -895.394 419.994
4836 2 -17.6228 -67.6471 2.55627 -664.613 -389.903 -789.04 2.68575 -7.73043 208.989 -223.554 506.319
7344 2 -10.6746 -69.6146 3.07222 -656.481 -688.021 149.831 2.5719 -106.393 178.515 -200.108 897.856
4955 2 -17.714 -70.3071 6.11888 -182.801 -543.944 -391.426 -90.8508 -304.998 154.99 -202.768 688.843
4940 2 -17.1414 -69.874 3.51297 -633.356 -646.624 -106.604 56.8296 225.689 -3.84677 -224.793 668.709
4934 1 -16.7698 -69.4465 5.04541 854.844 1372.08 945.047 125.367 15.9329 -35.48 -865.8 529.812
7433 2 -15.2287 -69.4255 5.28593 -301.625 -735.318 -520.856 -67.1971 156.931 -81.1196 -227.591 498.24
9917 2 -11.4102 -69.8771 0.431073 -73.5319 -471.265 -259.112 2.22552 416.46 -97.4461 -209.895 817.092
7421 2 -16.6157 -69.3925 0.835948 -490.498 -428.098 -168.704 32.2778 -391.873 -131.53 -219.283 776.586
4922 1 -17.6098 -69.2348 2.11708 1329.46 1036.68 1228.33 -5.96608 32.9688 243.46 -868.949 497.519
7438 2 -12.5178 -69.4523 5.1413 -26.9717 -541.246 -499.613 12.5965 -216.301 15.7403 -219.86 621.593
7444 1 -13.8615 -68.8403 5.90188 797.085 1631.94 1374.64 -316.896 -2.37657 -13.5998 -902.219 922.072
7430 1 -11.0863 -68.9822 4.56788 1138.51 1012.87 1397.05 -104.131 -65.2238 212.76 -886.79 544.242
4942 2 -17.7439 -68.2353 5.46494 -386.361 -937.236 -362.439 -76.6978 -214.544 101.22 -209.772 709.708
7435 2 -14.7849 -67.5708 0.750173 -641.627 -888.874 -651.795 141.208 108.355 -180.721 -216.598 501.74
7436 2 -11.235 -67.4453 4.18744 -743.675 -939.265 -806.831 129.418 66.9243 -34.0091 -218.603 311.52
7447 2 -14.0252 -67.2497 5.74654 -236.95 -214.003 -359.106 -67.7811 -72.1053 59.5033 -142.664 241.359
4938 2 -15.7507 -65.9407 2.43805 -671.656 -617.651 -749.597 -79.5889 -29.4651 35.1696 -217.39 196.263
29898 2 -25.4098 -65.351 2.60657 -493.739 -480.674 -640.472 26.794 -200.474 180.219 -253.995 493.739
2537 2 -21.039 -63.7782 6.93943 -517.234 -698.793 -448.203 -51.5819 29.8957 -4.04688 -236.45 246.93
2437 1 -24.1654 -65.8938 1.83545 755.193 602.443 1122.97 -196.617 228.352 -97.3857 -823.279 718.074
4933 1 -19.7475 -65.8908 1.19183 1216.4 1080.3 1213.96 95.3375 -2.39091 262.263 -846.541 501.826
2445 2 -22.7914 -65.9732 2.55007 -615.603 -532.806 -549.224 -83.3106 146.449 -4.96829 -242.501 301.668
2439 1 -21.5576 -65.7014 3.62569 1383.47 932.936 841.841 80.9582 -4.96576 -229.698 -872.715 656.003
2442 2 -20.3919 -65.3507 2.59836 -780.38 -761.062 -216.796 -92.9567 -177.55 20.1111 -230.673 654.844
47 2 -24.2995 -65.0603 0.465657 -626.106 -528.371 -579.347 -69.4628 166.93 -93.813 -244.953 362.826
7410 2 -10.3905 -67.0116 -11.6725 -476.793 -628.78 -478.134 73.9047 -30.3788 67.6864 -255.549 236.213
2448 2 -21.9712 -64.5519 4.61351 -763.115 -633.515 -312.199 -94.9584 55.0892 188.202 -231.597 551.452
46 2 -23.6132 -63.7791 6.48367 -586.211 -698.914 -607.86 96.9208 13.2653 -162.941 -238.056 345.092
38 1 -22.2117 -63.5303 5.87103 1046.15 1273.55 621.479 -22.0083 165.908 213.548 -864.51 741.262
2539 2 -19.9025 -63.0145 0.604242 -648.971 -810.596 -355.885 -5.2047 -2.22203 9.62817 -241.997 399.708
43 2 -25.0148 -62.6495 1.12022 -791.226 -494.4 -508.948 -66.6486 -68.3889 48.8855 -249.081 344.275
44 2 -22.1385 -62.0716 5.18124 -707.975 -570.292 -375.347 38.3286 23.4623 -144.688 -232.177 390.722
45 2 -23.4068 -61.9191 2.91877 -320.513 -644.426 -558.467 131.253 -53.9358 92.9674 -240.927 413.283
42 2 -20.7473 -62.1895 2.97103 -536.981 -760.201 -379.25 69.4597 -100.296 0.514258 -237.756 393.15
37 1 -24.9068 -61.7449 2.40527 950.217 1074.24 618.986 -75.9969 138.667 -77.9983 -842.238 509.351
2533 1 -19.6731 -61.9771 1.78004 1058.07 1101.92 656.33 20.2788 -83.9376 -193.947 -856.168 562.272
39 1 -22.0118 -61.5329 3.66974 1094.45 728.389 773.37 -114.744 145.628 -124.049 -851.483 518.503
143 2 -24.906 -60.1591 1.94496 -663.126 -383.846 -608.474 142.112 -7.40864 -14.187 -243.753 356.478
2639 2 -19.7151 -60.5586 1.07452 -696.773 -736.599 -615.336 58.3258 -34.9706 17.1392 -233.662 161.917
4941 2 -18.153 -65.5913 1.38685 -317.019 -662.706 -462.416 153.582 190.846 48.412 -228.392 526.724
2541 2 -18.2397 -62.0099 2.49257 -549.192 -703.639 -620.368 89.8256 114.102 110.75 -233.617 343.493
2540 2 -17.9944 -62.9137 4.87359 -691.539 -591.843 -573.545 -44.5111 -6.44658 47.3595 -222.718 157.783
5033 2 -16.0669 -64.3123 5.88881 -483.441 -746.419 -642.139 125.47 177.586 50.2409 -219.394 449.466
7434 2 -10.8406 -65.7282 2.41154 -525.793 -741.705 -377.394 -2.18024 -261.087 -32.6457 -202.742 555.331
5035 2 -14.7747 -62.5443 1.4577 -819.706 -518.076 -593.782 82.623 -0.963558 117.545 -221.167 368.524
5038 2 -13.4785 -64.1581 6.64084 -288.556 -740.053 -579.501 164.323 -81.0798 -129.585 -220.627 555.196
5031 1 -11.5741 -61.9151 3.84855 969.055 1213.55 1133.29 38.0533 -53.9183 54.923 -870.654 262.128
7440 2 -12.1021 -65.0266 4.59104 -708.082 -659.808 -464.791 -58.298 186.723 152.491 -211.485 484.076
5032 1 -14.5106 -63.5634 0.270534 1008.93 1254.9 764.336 -97.5656 147.295 -146.524 -883.165 581.842
4935 1 -17.2936 -66.0813 2.68717 919.953 955.831 1133.3 -36.2061 -32.1809 -211.427 -876.533 424.61
4944 2 -17.7146 -65.3276 4.019 -815.017 -573.546 -462.652 113.628 49.6683 82.29 -233.616 404.763
5040 2 -11.3035 -60.384 4.10927 -526.32 -660.591 -521.662 -78.5796 -2.04308 151.91 -237.787 326.256