ITEM: TIMESTEP
300000
ITEM: NUMBER OF ATOMS
29952
ITEM: BOX BOUNDS pp pp pp
-2.5615833775063237e+01 3.5601128117061187e+01
-7.1439458165749258e+01 8.1424752499947999e+01
-2.1035324467156940e+01 3.4903177627851115e+01
ITEM: ATOMS id type x y z v_StrAtomXX v_StrAtomYY v_StrAtomZZ v_StrAtomXY v_StrAtomXZ v_StrAtomYZ c_PEAtom v_VMS
1 1 -24.4294 -66.9947 -19.6095 955.444 1087.51 1047.64 -118.506 -0.595621 101.626 -835.234 294.756
2 1 -21.8632 -70.0755 -15.9542 976.258 1316.49 1124.17 -10.5033 -76.4387 7.05924 -824.045 324.534
3 1 -21.8506 -67.1273 -17.6661 907.685 1470.95 1087.9 -1.90539 -36.186 71.7664 -823.58 517.326
6 2 -20.4557 -67.1043 -18.5061 -342.629 -562.471 -322.453 17.4161 -279.703 -53.9516 -254.607 545.451
7 2 -24.4965 -68.4317 -20.3957 -505.649 309.584 -585.293 -33.9141 -124.468 64.3404 -248.492 893.433
8 2 -21.9857 -68.6641 -16.9078 -468.181 544.1 -301.559 54.3863 -23.8756 -385.175 -246.394 1157.35
9 2 -23.0647 -67.0784 -18.7338 -415.503 -666.499 -348.797 -12.2171 240.145 -89.4801 -241.798 530.724
10 2 -23.0445 -70.0451 -14.8125 -441.048 -553.98 -163.376 1.82748 -280.487 -57.5676 -244.09 605.958
12 2 -21.9764 -65.6952 -16.8287 -455.051 722.329 -422.864 -70.598 -65.4375 204.538 -251.966 1225.83
107 2 -24.5269 -65.6171 -20.4296 -502.154 321.762 -518.91 -2.03141 26.0005 -141.187 -250.659 868.772
2497 1 -19.0238 -66.9864 -19.2066 792.303 1340.31 1053.5 24.781 -107.032 107.002 -819.211 544.019
2501 2 -20.4626 -70.019 -15.2056 -322.577 -672.805 -385.291 62.2191 155.342 -1.30158 -252.114 434.328
2503 2 -18.7849 -68.4444 -20.1188 -540.322 373.864 -419.141 -95.5362 -31.4367 182.89 -245.367 932.915
2603 2 -18.9115 -65.5397 -20.0333 -493.607 362.536 -471.592 15.1142 -9.02342 -176.634 -258.924 899.525
2512 1 -19.3122 -69.9362 -14.0569 958.484 1325.44 905.614 -100.892 25.2718 39.5715 -819.778 440.46
2500 1 -18.9069 -69.9217 -20.8121 827.083 1398.9 755.951 -42.0252 -20.95 -130.219 -831.414 655.893
27462 2 -25.5868 -66.9153 -18.4549 -463.807 -628.503 -246.5 55.9089 -178.965 -57.5308 -244.541 474.899
2412 2 -22.0709 -71.508 -16.7975 -524.661 281.418 -470.564 117.976 126.496 189.07 -249.874 897.823
2506 2 -17.8344 -69.9804 -14.7301 -236.724 -601.169 -196.82 -39.2778 -326.278 48.5144 -254.263 692.833
2507 2 -18.8679 -71.3928 -19.9701 -555.687 410.463 -476.88 170.046 -60.2484 -115.633 -248.049 1000.63
11 2 -24.4493 -71.3896 -20.3349 -563.8 382.943 -488.797 28.7379 24.1393 -132.327 -246.433 942.177
2505 2 -17.9102 -66.9926 -18.0907 -497.093 -661.366 -453.129 -32.7426 149.662 -22.8471 -251.545 328.814
2498 1 -16.5227 -69.9681 -15.7146 898.442 1423.4 1161.42 -99.7451 -72.6418 124.48 -811.493 546.672
2499 1 -16.5096 -67.0315 -17.299 885.365 1401.97 1023.95 64.6895 -76.8979 75.4828 -816.772 511.738
2502 2 -15.3789 -67.0164 -18.482 -611.511 -650.319 -211.243 24.109 -161.718 -43.5869 -252.618 512.987
2504 2 -16.5027 -68.4752 -16.4836 -471.988 429.723 -423.196 100.301 -71.7908 -239.179 -259.166 994.349
2508 2 -16.3736 -65.558 -16.4738 -478.592 498.994 -378.784 26.1636 30.8809 263.183 -250.968 1039.6
4993 1 -14.2013 -67.0921 -19.5085 875.465 1543.9 971.167 -64.595 189.427 -22.0457 -824.007 716.67
4994 1 -11.5894 -69.9325 -16.0123 823.758 1390.6 877.247 -28.3482 -46.6114 -10.0151 -827.918 550.528
4995 1 -11.6209 -66.9684 -17.5044 902.691 1420.69 932.237 -39.8012 79.4184 78.2376 -833.805 543.994
4999 2 -14.2231 -68.5832 -20.297 -511.767 467.709 -500.041 38.5357 15.8537 153.758 -250.046 1012.01
5000 2 -11.6375 -68.4939 -16.7885 -518.389 377.173 -540.973 7.42343 -15.703 -76.4347 -251.981 917.169
5001 2 -12.8543 -67.1068 -18.5651 -348.396 -696.003 -208.387 76.4276 267.068 21.0147 -239.849 649.557
5002 2 -12.6949 -69.9199 -14.8376 -568.257 -727.144 -320.416 71.9693 -88.0219 -78.0878 -246.126 427.93
5004 2 -11.768 -65.5141 -16.7418 -533.087 427.211 -451.088 12.0641 0.15542 136.975 -250.329 952.3
5099 2 -14.1805 -65.6033 -20.3832 -452.397 507.501 -382.088 32.4136 -36.3274 -289.307 -247.093 1056.91
4997 2 -15.2449 -69.9656 -14.7114 -496.93 -698.985 -386.643 27.6508 180.735 -34.2827 -248.907 423.189
7493 2 -10.2066 -70.0983 -15.2179 -730.453 -800.12 -450.46 -57.1944 33.6042 -76.6899 -240.921 365.515
4908 2 -16.3627 -71.418 -16.6025 -469.204 426.906 -402.499 -75.2292 -101.465 176.471 -256.254 942.856
5003 2 -14.2697 -71.5534 -20.3264 -460.518 535.055 -448.102 -0.366325 -49.3996 -146.504 -254.513 1025.02
98 1 -21.9336 -64.0855 -16.1055 998.239 1614.49 1009.61 -14.4939 -52.7073 81.6449 -806.513 633.912
103 2 -24.4929 -62.5744 -20.4105 -535.321 426.051 -474.741 25.9713 30.0931 122.214 -251.838 958.757
104 2 -22.0044 -62.6035 -16.857 -495.2 558.683 -487.926 -18.7992 -22.8568 -166.567 -258.861 1090.38
106 2 -23.1074 -64.1004 -14.927 -660.261 -690.719 -227.136 15.2126 -143.342 -22.0571 -245.043 515.278
2597 2 -20.568 -64.0772 -15.2317 -532.387 -677.962 -373.078 57.7969 186.749 74.1052 -253.279 448.202
2599 2 -18.8441 -62.5791 -19.9333 -445.459 579.709 -369.33 40.2365 -45.3477 267.736 -255.605 1097.63
2596 1 -19.0475 -64.0605 -20.7365 1045.91 1431.58 989.572 -22.0975 -17.4909 110.93 -819.203 461.459
97 1 -24.3403 -61.1293 -19.6574 995.421 1292.99 967.397 33.6899 -146.567 -61.7784 -834.456 420.678
99 1 -21.8995 -61.1138 -17.6182 940.76 1288.8 1160.96 96.4731 -1.30921 11.6486 -827.162 348.3
102 2 -20.4296 -61.0519 -18.3185 -211.749 -624.036 -423.498 -56.0802 -298.837 24.4113 -243.261 637.691
105 2 -22.9716 -61.1517 -18.8333 -544.444 -637.673 -312.407 -22.3622 194.283 28.103 -245.282 448.634
108 2 -22.022 -59.6586 -16.8162 -586.48 387.267 -566.272 7.24754 21.8969 107.612 -246.991 982.472
2593 1 -18.9797 -61.1436 -19.0609 961.123 1379.99 1180.62 -163.32 7.3387 44.4852 -823.871 466.695
2699 2 -18.8978 -59.6129 -19.7883 -526.826 659.873 -435.794 -7.91155 42.7346 -245.561 -245.004 1222.73
203 2 -24.4215 -59.6527 -20.435 -559.882 577.221 -465.211 -40.494 37.2767 -182.607 -243.309 1141.68
2608 1 -19.4238 -64.0261 -14.1715 931.418 1315.52 1120.7 18.8339 -223.231 137.912 -825.268 564.162
2602 2 -17.9533 -64.0691 -14.9736 -147.455 -581.36 -363.838 -83.1939 -280.257 23.1843 -245.253 631.834
27558 2 -25.518 -61.1056 -18.5056 -308.866 -647.188 -87.6832 32.0847 -289.597 -20.1899 -238.693 702.941
2601 2 -17.8231 -61.2069 -17.9076 -452.226 -636.491 -306.756 73.1977 228.268 -67.288 -247.519 517.586
2594 1 -16.4769 -64.1154 -15.6001 826.621 1393.02 1074.03 33.3104 -81.5502 70.9273 -830.965 529.394
2600 2 -16.2224 -62.6281 -16.3152 -505.494 512.596 -485.549 -6.94323 46.7114 -223.259 -244.408 1082.97
5090 1 -11.651 -64.038 -15.9105 826.439 1500.07 954.631 -30.8194 -75.8442 40.9259 -821.542 639.519
5095 2 -14.244 -62.7405 -20.2399 -499.852 304.339 -529.72 -23.5971 25.4763 135.856 -252.672 854.765
5096 2 -11.7229 -62.5634 -16.7681 -439.357 374.516 -336.016 -6.90771 10.3139 -313.118 -254.601 939.975
5098 2 -12.834 -64.0325 -14.8096 -327.86 -689.404 -238.074 21.3066 -213.454 -27.2876 -249.672 558.141
5093 2 -15.4102 -64.1982 -14.4003 -356.626 -643.902 -306.584 43.382 228.776 39.4108 -248.116 516.458
2595 1 -16.4097 -61.1535 -17.1792 876.069 1424.28 929.215 -139.914 13.7279 20.6055 -826.605 578.612
2598 2 -15.3405 -61.2966 -18.3547 -651.398 -659.524 -303.609 -29.3039 -81.8507 55.4082 -248.426 394.632
2604 2 -16.3542 -59.6767 -16.4099 -519.837 443.331 -366.584 -32.2819 -52.5615 240.683 -252.642 994.37
5089 1 -14.2629 -61.229 -19.53 998.39 1248.06 986.097 31.0601 128.666 19.2036 -823.851 345.285
5091 1 -11.6797 -61.1279 -17.5739 882.497 1259.39 1190.71 8.77042 -28.6418 48.546 -833.068 361.448
5097 2 -12.8345 -61.0388 -18.6993 -363.494 -591.225 -300.512 -43.7347 296.13 -37.1883 -240.429 585.779
5100 2 -11.8464 -59.694 -16.7306 -552.352 395.822 -677.653 -128.739 -46.4425 48.7822 -241.328 1047.32
5195 2 -14.4204 -59.8184 -20.361 -545.977 387.147 -537.711 62.1351 -54.0421 -78.7025 -256.869 949.738
7589 2 -10.2655 -64.1035 -15.1669 -529.667 -739.669 -443.051 -9.27754 66.1528 -4.38708 -249.958 288.509
2692 1 -18.9181 -58.1064 -20.6087 1025.98 1316.27 935.077 59.314 -79.0536 -161.882 -828.957 476.28
193 1 -24.4953 -55.1684 -19.4973 911.898 1301.14 915.002 -43.6316 66.1705 37.108 -833.791 416.282
194 1 -21.9318 -58.1966 -16.0519 867.248 1272.28 903.773 26.6817 -11.788 -33.853 -836.333 395.699
195 1 -21.9504 -55.3146 -17.5855 998.467 1113.75 1226.41 8.15048 79.7845 100.702 -836.83 297.809
198 2 -20.5029 -55.2078 -18.3653 -512.315 -564.578 -505.895 17.1046 -289.047 14.8059 -239.474 505.26
199 2 -24.5411 -56.6289 -20.3138 -465.162 543.688 -268.328 -37.5648 -54.5418 335.266 -249.348 1099.23
200 2 -22.0362 -56.7558 -16.8893 -497.669 124.768 -461.804 -52.5923 -10.2545 -131.808 -255.811 653.547
201 2 -23.1039 -55.1183 -18.7335 -533.972 -571.396 -332.851 -57.9642 176.858 -91.133 -243.725 422.147
202 2 -23.1178 -58.2139 -14.9786 -482.295 -703.352 -331.306 -1.9937 -152.698 -3.63509 -242.726 418.38
204 2 -22.0217 -53.9322 -16.6412 -584.609 512.789 -572.326 29.1129 -0.0313634 190.462 -233.733 1141.19
299 2 -24.6711 -53.7271 -20.3416 -526.51 405.318 -472.866 6.86979 -6.48487 -202.588 -249.991 971.899
2689 1 -19.0901 -55.2996 -19.0397 639.228 1211.41 1157.65 -39.1064 -52.8748 -98.7444 -839.268 584.592
2693 2 -20.5552 -58.258 -15.2726 -458.405 -672.978 -300.25 -86.436 188.315 -72.6016 -242.78 499.604
2695 2 -18.853 -56.6642 -19.8867 -511.596 88.4158 -609.452 -65.3305 -46.6053 11.5265 -256.508 669.346
2795 2 -18.8716 -53.7973 -19.8608 -488.134 594.713 -436.924 15.7936 74.1853 -278.148 -241.381 1170.08
2704 1 -19.3862 -58.2796 -14.1221 808.517 1563.22 1137.79 16.8414 76.1386 -18.3371 -833.923 669.886
197 2 -25.6446 -58.1847 -14.6435 -512.293 -636.296 -231.322 9.73245 198.208 43.6013 -252.971 503.001
2788 1 -18.9127 -52.3156 -20.6802 1067.13 1463.3 1034.37 -21.5488 94.1661 -69.6639 -829.861 462.122
27654 2 -25.594 -55.1366 -18.3494 -731.611 -657.861 -337.161 -6.26495 -117.565 56.7461 -243.535 427.998
2697 2 -18.0778 -55.334 -17.8199 -413.922 -596.369 -436.962 34.4484 183.89 -30.3268 -237.292 370.649
2698 2 -17.9893 -58.3432 -14.8455 -482.6 -683.392 -468.495 13.0426 -197.511 8.76769 -244.92 401.4
2794 2 -17.9643 -52.523 -14.8736 -307.884 -719.246 -378.623 26.1219 -237.624 -2.57934 -239.933 562.659
2690 1 -16.537 -58.248 -15.5289 874.191 1344.33 1062.71 -41.8154 54.3466 82.6457 -832.682 450.039
2691 1 -16.5709 -55.357 -17.1185 1101.16 1190.8 961.95 -54.2947 70.517 -16.3485 -829.99 253.883
2694 2 -15.5166 -55.4302 -18.2919 -670.419 -648.627 -491.516 -3.44626 37.376 28.2835 -254.009 187.641
2696 2 -16.454 -56.7712 -16.263 -552.403 312.711 -497.469 -3.61234 8.97017 -160.18 -250.618 883.838
2700 2 -16.4202 -53.8958 -16.3471 -644.134 433.552 -500.403 62.0592 49.6551 171.652 -247.961 1065.14
5185 1 -14.385 -55.3327 -19.3636 920.966 1393.72 865.713 -38.4933 119.941 50.4763 -831.969 554.899
5186 1 -11.8372 -58.1743 -16.0804 1034.03 1240.54 988.439 46.1515 -8.75523 -85.4337 -842.63 287.502
5187 1 -11.7613 -55.2244 -17.5331 862.626 1340.85 1084.03 -45.6423 -26.5782 52.8025 -840.009 434.247
5191 2 -14.3171 -56.7855 -20.217 -508.961 635.832 -452.759 -128.755 -93.6923 212.627 -243.256 1208.75
5192 2 -11.8438 -56.7542 -16.8357 -553.367 303.695 -626.615 69.3246 -28.9335 37.6582 -248.975 907.68
5193 2 -12.9755 -55.2398 -18.5648 -495.464 -683.588 -396.406 83.8276 144.076 74.1636 -240.221 404.592
5194 2 -12.9563 -58.2597 -14.9139 -616.309 -718.316 -139.701 59.6039 -99.7944 -53.4167 -237.148 579.027
5196 2 -11.7338 -53.7806 -16.7085 -531.698 315.161 -574.693 66.6258 19.655 103.562 -247.888 895.59
5291 2 -14.4822 -53.8481 -20.1453 -523.928 442.813 -374.032 99.6643 -63.3166 -264.091 -245.861 1031.12
5189 2 -15.4433 -58.2293 -14.3394 -606.135 -732.776 -324.143 52.135 155.989 25.0405 -238.646 462.927
5290 2 -12.8594 -52.3978 -14.8266 -560.764 -737.52 -314.949 6.14903 -135.477 61.3809 -234.558 448.994
7685 2 -10.421 -58.2185 -15.2191 -283.578 -695.236 -296.639 -43.7291 287.175 28.4566 -231.949 647.943
2786 1 -16.495 -52.4039 -15.6169 1018.4 1479.51 988.199 66.8831 -26.7537 -166.934 -828.138 571.513
5285 2 -15.3808 -52.3225 -14.4911 -539.445 -649.15 -189.363 -14.8816 254.849 26.6864 -246.208 608.806
2615 2 -19.4971 -65.4806 -13.366 -558.094 355.409 -512.823 -16.6026 -44.3852 -191.262 -249.453 954.81
16 1 -24.1971 -69.9918 -13.6407 894.595 1003.68 1137.34 73.8051 -69.6283 64.863 -824.884 296.401
13 1 -24.263 -67.0179 -12.1971 902.334 1347.81 929.018 42.231 7.08709 49.7946 -826.055 447.451
14 1 -21.64 -69.932 -8.67984 931.283 1460.57 939.814 2.6767 -84.5115 -128.93 -811.474 589.086
15 1 -21.7042 -67.0754 -10.3029 1075.28 1244.75 838.377 47.6777 -40.0018 57.3193 -828.015 382.707
18 2 -20.6096 -67.054 -11.5095 -366.989 -748.652 -246.519 28.0357 -200.612 -130.421 -241.435 616.669
19 2 -24.0667 -68.5725 -12.8467 -477.753 369.284 -529.762 -57.5618 -12.5422 75.2735 -253.602 889.742
20 2 -21.5946 -68.5101 -9.58249 -547.177 356.711 -498.424 0.00952473 -28.1717 -101.864 -261.117 899.351
21 2 -23.1691 -66.9878 -11.0071 -380.96 -751.141 -332.238 -55.8786 210.017 -15.442 -240.402 547.583
22 2 -23.0671 -69.9385 -7.87624 -417.048 -706.452 -400.383 18.7417 -185.202 43.1198 -248.006 445.406
24 2 -21.5141 -65.5739 -9.59933 -546.927 365.239 -418.57 -25.9197 -15.698 149.674 -254.451 895.21
119 2 -24.0283 -65.5979 -12.9774 -566.978 277.711 -573.312 53.1319 -52.873 -55.4692 -251.489 863.12
2509 1 -19.3815 -66.9292 -12.5749 958.546 1451.23 931.434 121.198 -36.171 136.924 -822.951 600.887
2515 2 -19.5295 -68.4605 -13.3808 -485.916 474.963 -454.486 63.0138 56.1466 118.97 -251.752 978.727
28 1 -24.4626 -69.8961 -7.12994 739.934 1172.7 974.827 -100.245 101.861 17.2642 -822.371 450.53
2513 2 -20.472 -69.7945 -7.59428 -643.49 -703.732 -249.853 -61.5322 193.351 27.2921 -253.002 555.012
27474 2 -25.7225 -66.9578 -11.5521 -654.311 -668.558 -398.801 -88.6268 -166.367 54.3415 -246.681 429.634
23 2 -24.128 -71.3659 -12.7699 -449.751 277.73 -484.103 -116.885 87.7861 -148.815 -265.554 828.216
17 2 -25.6294 -69.8697 -8.24767 -568.485 -662.451 -302.694 48.9809 133.059 45.687 -252.008 413.549
2424 2 -21.4683 -71.5099 -9.24979 -499.39 481.534 -459.421 -43.6126 5.19144 115.556 -255.722 985.114
2518 2 -17.9842 -69.7298 -7.82965 -757.644 -729.71 -330.1 -49.4982 -25.6688 102.113 -241.628 460.694
2517 2 -18.0362 -66.8476 -11.7428 -440.013 -638.633 -300.38 9.93479 169.571 -20.4102 -251.501 417.72
5008 1 -13.9333 -69.9995 -13.8389 757.739 1394.69 880.966 -22.8056 -57.2467 82.817 -826.682 611.855
2510 1 -16.9406 -70.038 -8.97836 728.307 1727.41 868.387 -69.0817 -35.2942 25.307 -821.108 947.546
2511 1 -16.8449 -66.9772 -10.639 823.89 1391.88 1111.83 -84.2601 52.9907 -152.467 -831.608 584.327
2514 2 -15.4349 -67.0064 -11.394 -456.025 -640.797 -491.754 36.5476 -204.828 -4.03315 -248.668 398.415
2516 2 -16.9595 -68.4757 -9.82315 -440.041 707.274 -390.879 42.3701 55.1194 -336.408 -237.842 1271.36
2520 2 -16.8919 -65.5638 -9.80639 -587.149 285.187 -606.977 78.1498 6.802 107.146 -246.04 911.9
5005 1 -14.0085 -67.1379 -12.0839 597.841 1476.53 1119.81 35.5119 -129.73 -28.3525 -820.048 801.616
5006 1 -11.536 -70.1111 -8.68454 983.451 1401.31 1118.05 -5.61947 -220.762 49.5419 -825.033 538.649
5007 1 -11.5336 -67.1084 -10.178 1074.31 1338.78 895.065 -134.519 -155.638 -52.2238 -821.454 533.497
5009 2 -15.5581 -70.017 -8.18332 -649.035 -691.523 -298.164 152.557 216.148 27.3022 -243.566 593.33
5011 2 -13.9015 -68.5755 -12.9416 -439.347 377.86 -406.269 -0.150775 13.4127 246.696 -252.895 908.299
5012 2 -11.3736 -68.6131 -9.40224 -509.382 533.314 -442.991 29.3556 15.221 -197.591 -251.323 1069.02
5013 2 -12.9713 -67.165 -10.9015 -530.222 -698.65 -413.38 29.5823 118.005 -34.0308 -248.423 331.021
5014 2 -13.021 -70.1246 -7.8869 -271.291 -575.934 -290.281 -32.4212 -415.022 31.2555 -237.25 781.151
5016 2 -11.5047 -65.6679 -9.41785 -620.903 292.446 -446.665 9.01846 -41.2363 127.272 -252.244 871.416
5111 2 -13.7475 -65.6275 -12.9511 -447.804 485.14 -415.871 31.7968 2.42352 -241.013 -249.122 1009.42
5020 1 -14.4092 -69.981 -7.07145 909.227 1318.75 1106.68 -60.0971 -35.1366 17.7379 -836.333 375.92
7505 2 -10.5217 -70.1303 -7.44723 -539.657 -685.515 -305.816 18.4878 158.724 30.0014 -245.428 435.166
5010 2 -10.3797 -67.136 -11.3602 -332.756 -584.379 -71.9922 42.3603 -273.396 -22.5989 -254.544 654.276
4920 2 -17.0072 -71.5347 -9.71829 -473.006 409.767 -451.038 -81.5848 -19.3384 136.011 -255.917 914.858
5015 2 -13.893 -71.4774 -13.0569 -490.994 387.771 -356.775 65.0987 18.975 -263.171 -254.773 945.445
112 1 -24.1443 -64.1531 -13.7722 756.649 1266.03 802.2 -8.8259 117.961 16.5139 -836.869 530.22
110 1 -21.6609 -64.1958 -8.70583 1021.83 1270.38 1149.94 78.5226 -41.1765 62.2252 -834.244 285.566
115 2 -24.0582 -62.6995 -12.9528 -500.516 510.785 -360.658 -52.357 -45.2397 243.976 -249.449 1045.84
116 2 -21.5669 -62.676 -9.45368 -536.564 559.132 -536.366 -70.674 63.325 -186.369 -237.713 1153.93
118 2 -23.0506 -64.1025 -7.90375 -604.261 -629.202 -445.585 -230.961 -177.35 124.45 -238.052 574.985
2611 2 -19.4794 -62.6204 -13.2039 -474.274 405.578 -251.697 -13.2329 -26.8506 352.973 -249.973 1002.15
124 1 -24.4346 -63.9872 -7.11077 808.468 1225.64 994.821 98.4396 -20.806 12.8955 -841.822 402.355
2609 2 -20.4657 -64.0615 -7.58323 -577.214 -641.8 -273.174 59.3446 265.392 50.347 -240.459 587.977
114 2 -20.3537 -61.0984 -11.1572 -387.554 -679.46 -217.346 -30.2307 -257.937 135.569 -239.17 649.105
117 2 -22.8929 -61.0613 -11.1586 -433.175 -635.72 -313.529 77.6533 199.956 70.0304 -252.628 481.999
109 1 -24.1726 -61.1823 -12.1622 1002.83 1584.92 1014.64 37.2217 10.2586 18.2789 -819.912 581.009
111 1 -21.6729 -61.1366 -10.1687 902.018 1491.2 1127.11 -110.2 -110.785 -8.62059 -829.878 581.944
120 2 -21.6603 -59.7526 -9.1418 -448.842 396.142 -321.51 83.7657 47.8857 308.252 -247.114 967.267
215 2 -24.1134 -59.6712 -13.0231 -530.08 688.868 -407.728 -75.4388 23.4643 -300.158 -240.853 1280.89
2605 1 -19.3215 -61.1636 -12.3987 854.254 1472.56 957.449 -84.3191 -101.879 -77.3804 -837.197 632.123
2711 2 -19.5437 -59.6922 -13.2189 -510.296 487.108 -382.367 -14.4773 37.7975 -260.274 -244.808 1044.86
27570 2 -25.5621 -61.0743 -11.3797 -166.825 -599.248 -307.884 -119.495 -250.707 70.3369 -250.531 626.203
2613 2 -17.8709 -61.1519 -11.7825 -610.284 -696.498 -384.168 33.5314 147.491 61.0501 -241.007 397.329
2614 2 -17.9552 -64.1738 -7.9337 -552.911 -780.44 -298.674 90.5161 -162.52 47.9524 -231.923 533.825
5104 1 -13.9695 -64.1634 -13.6484 1024.26 1324.83 985.531 -5.81862 -8.52365 72.3952 -823.013 345.726
2606 1 -16.8098 -64.1064 -9.03895 1044.67 1497.41 916.276 -94.9764 96.1566 -156.052 -839.092 638.314
2612 2 -16.9862 -62.5872 -9.81351 -521.196 522.66 -442.848 -90.6457 54.7638 -167.022 -242.072 1063.64
5102 1 -11.4287 -64.194 -8.6334 986.839 1401.62 886.587 13.0493 4.88069 -133.75 -829.299 527.186
5105 2 -15.4136 -64.1403 -8.17211 -484.72 -746.511 -232.382 -62.4075 276.134 -81.3972 -240.089 677.184
5107 2 -13.871 -62.7205 -12.7581 -483.662 150.864 -508.494 -37.3267 -7.99072 87.8975 -256.764 668.241
5108 2 -11.3374 -62.7261 -9.52438 -579.734 411.896 -340.675 20.8592 10.6464 -174.602 -249.114 946.85
5110 2 -12.8498 -64.1054 -7.86594 -318.631 -693.533 -301.929 22.094 -258.653 -6.55318 -246.891 591.092
5116 1 -14.2595 -64.1651 -7.0853 919.842 1721.86 953.833 -18.3289 -105.069 -31.4586 -824.315 808.84
5109 2 -12.7869 -61.1571 -11.0562 -433.518 -745.318 -398.286 -39.1803 191.324 -23.037 -232.117 474.824
2610 2 -15.3532 -61.1308 -11.1878 -534.913 -606.363 -340.743 -96.4272 -241.825 76.8804 -239.606 527.015
2607 1 -16.8044 -61.1066 -10.5678 865.957 1327.47 1018.77 85.3087 16.8484 -40.2478 -842.982 439.732
2616 2 -16.9672 -59.6652 -9.75261 -627.898 279.6 -462.864 -8.47932 32.9497 155.978 -242.576 881.748
5101 1 -13.9931 -61.2973 -12.0996 937.06 1191.41 1134.05 19.6995 -114.369 -241.625 -837.719 518.602
5103 1 -11.3587 -61.2631 -10.2582 1099.39 1410.64 819.276 -49.2735 34.1578 -25.9789 -839.698 524.723
5112 2 -11.3277 -59.7582 -9.4925 -582.557 540.875 -416.649 -81.1303 -60.2722 221.66 -239.737 1131.94
5207 2 -13.8948 -59.8101 -13.0215 -550.537 632.194 -482.879 91.3959 -26.8683 -184.496 -236.203 1205.3
5106 2 -10.1888 -61.2188 -11.3464 -505.883 -734.791 -288.569 55.3731 -94.0946 -38.2252 -244.246 435.331
305 2 -25.4524 -52.1453 -8.31976 -301.161 -709.091 -239.918 -36.5598 275.869 -55.1755 -243.907 660.753
27666 2 -25.5525 -55.4396 -11.2506 -559.765 -564.283 -419.906 -21.1485 -150.476 -37.3914 -246.959 306.069
2807 2 -19.5434 -53.8914 -13.2872 -611.48 460.632 -448.085 118.089 -85.3052 -214.037 -236.494 1096.38
208 1 -24.2625 -58.1785 -13.8265 952.627 1355.73 1013.13 34.5199 9.87182 -61.5645 -826.01 396.232
205 1 -24.2481 -55.3263 -12.1922 831.208 1300.5 1207.93 68.6511 -107.28 -114.845 -825.063 523.065
206 1 -21.687 -58.2442 -8.4612 716.033 1457.96 959.229 -66.8694 24.2186 -78.1568 -843.814 680.197
207 1 -21.6986 -55.3441 -10.208 879.011 1297.13 1023.89 -8.83653 3.00228 -95.2965 -847.153 403.411
210 2 -20.5905 -55.4633 -11.3363 -597.088 -646.293 -328.485 43.2645 -74.5332 -48.3132 -238.776 342.153
211 2 -24.1167 -56.7353 -13.024 -480.805 348.565 -534.687 -22.4786 9.83035 168.938 -257.096 907.123
212 2 -21.7351 -56.8304 -9.38808 -497.248 493.656 -485.439 2.76916 50.2095 -240.736 -238.269 1073.21
213 2 -23.0582 -55.2599 -11.107 -611.111 -658.428 -312.258 -13.712 334.652 13.5605 -230.937 665.421
214 2 -23.0086 -58.1756 -7.60141 -647.712 -761.285 -512.435 16.9993 -81.7109 38.9007 -239.095 268.327
216 2 -21.5554 -53.9203 -9.46908 -452.529 445.969 -531.793 -64.954 -42.4345 117.394 -245.719 971.701
311 2 -24.1646 -53.7862 -12.9769 -491.571 306.009 -585.453 68.5216 -19.7485 -68.0704 -252.644 865.437
2701 1 -19.4342 -55.3055 -12.4708 1034.06 1238.56 1033.55 72.5133 -115.971 -5.35535 -850.004 313.263
2705 2 -20.4556 -58.0839 -7.45762 -769.105 -710.089 -417.627 18.0942 177.214 -1.99458 -238.143 448.872
2707 2 -19.4784 -56.7295 -13.3491 -494.573 475.596 -380.103 -12.7745 44.2962 323.565 -237.744 1078.77
220 1 -24.4556 -58.1731 -6.95691 901.769 1423.34 991.302 -49.4894 28.6194 -84.7542 -832.997 514.502
316 1 -24.3819 -52.2363 -7.09528 1203.43 1293.32 930.63 5.60775 16.6148 20.9859 -829.142 330.55
209 2 -25.5256 -58.0874 -8.19402 -502.575 -660.159 -183.153 -29.2238 293.928 -52.8849 -241.49 668.829
302 1 -21.6037 -52.3521 -8.69256 758.377 1480.67 1104.7 54.3685 -27.5908 129.14 -835.218 672.82
310 2 -22.821 -52.3215 -7.67669 -320.343 -668.436 -302.758 -55.8032 -184.429 8.36858 -241.596 489.074
2801 2 -20.2903 -52.3135 -7.74448 -461.393 -759.339 -390.576 27.6058 227.172 97.785 -231.806 548.343
2806 2 -17.7154 -52.2767 -7.74564 -595.182 -640.284 -157.859 -5.81466 -121.365 -21.791 -245.593 508.649
2710 2 -18.0387 -58.1683 -7.9196 -727.367 -636.264 -155.993 80.3632 -87.4468 -44.9095 -240.4 575.396
2709 2 -18.0147 -55.2051 -11.7365 -446.307 -621.707 -334.306 2.72313 236.153 -31.8212 -236.087 483.032
5200 1 -14.004 -58.2795 -13.6745 994.488 1480.68 846.685 -80.7231 -158.5 14.4598 -842.669 652.406
2702 1 -16.8841 -58.1943 -8.99776 934.467 1120.64 743.551 -23.0086 -59.1678 32.0889 -846.563 349.047
2703 1 -16.7854 -55.3429 -10.6438 760.033 1457.06 1162.47 -137.986 130.667 0.258611 -826.462 689.665
2706 2 -15.5051 -55.4005 -11.532 -613.76 -664.519 -431.487 87.8797 -189.244 -25.218 -245.101 421.389
2708 2 -16.8658 -56.8179 -9.8251 -552.485 247.868 -514.766 68.5682 23.7555 -92.562 -250.614 808.269
2712 2 -16.8897 -53.8364 -9.8215 -463.691 585.485 -393.338 -79.6058 -78.8874 250.509 -253.195 1121.54
5197 1 -14.0097 -55.3242 -12.1414 903.068 1502.13 879.416 136.799 -66.1499 -96.7265 -829.961 686.249
5198 1 -11.4252 -58.2832 -8.64698 782.009 1390.72 868.506 41.0377 -185.701 64.6947 -841.652 668.145
5199 1 -11.5633 -55.2944 -10.2434 950.83 1646.04 902.808 -60.5737 -162.354 -119.724 -826.425 807.519
5201 2 -15.5026 -58.2249 -8.20917 -446.98 -700.503 -365.715 23.6666 155.917 14.2041 -241.463 408.284
5203 2 -13.8754 -56.7989 -12.8959 -655.094 455.094 -463.195 5.84161 10.7023 143.992 -244.114 1057.8
5204 2 -11.3756 -56.8197 -9.4264 -550.577 532.201 -447.199 -75.5077 43.1731 -185.426 -240.928 1094.08
5205 2 -12.9611 -55.2867 -10.9727 -572.998 -763.106 -454.517 -70.5475 53.1324 -16.7783 -250.138 311.364
5206 2 -12.8267 -58.2422 -7.85457 -281.492 -648.996 -379.811 -114.867 -218.27 85.5599 -243.051 559.52
5208 2 -11.454 -53.7839 -9.49132 -581.571 458.009 -412.522 61.0515 43.484 197.742 -247.146 1033.31
5303 2 -13.8062 -53.7964 -12.9343 -523.771 595.899 -483.995 -25.6311 -8.55048 -161.66 -242.6 1136.35
5308 1 -14.3022 -52.3441 -7.01299 951.683 1159.72 1144.29 -104.072 -115.999 -35.1391 -833.145 341.868
5302 2 -12.8406 -52.4065 -7.78135 -496.768 -669.173 -445.591 -37.4389 -249.195 57.2327 -235.586 491.419
5212 1 -14.2865 -58.1624 -7.12796 1062.42 1507.65 1088.22 -19.6555 2.97739 -91.1968 -824.76 462.111
5202 2 -10.3826 -55.2811 -11.3795 -314.081 -731.667 -185.903 1.33501 -246.092 31.1703 -240.711 654.933
5297 2 -15.2528 -52.3152 -8.32082 -541.849 -588.089 -147.969 60.5808 326.687 -26.6499 -235.619 713.307
7697 2 -10.2829 -58.2176 -7.61486 -877.26 -708.833 -476.2 71.0849 -3.93794 122.19 -245.692 426.221
5296 1 -13.9687 -52.3059 -13.6541 1089.6 1387.85 897.706 -24.4829 55.6074 4.23763 -836.785 440.608
27486 2 -25.5195 -67.0185 -4.3777 -536.9 -660.89 -129.702 -6.03941 -184.486 -34.2259 -244.073 580.862
2531 2 -18.9849 -71.3141 -5.96412 -465.05 575.265 -390.289 -111.209 27.079 -219.932 -248.344 1092.92
29 2 -25.5573 -69.8865 -0.563124 -738.594 -739.516 -349.04 26.698 151.472 104.029 -244.53 505.518
2524 1 -19.1476 -69.8033 -6.72196 862.5 1457.39 808.781 143.526 -11.4131 -162.951 -823.169 728.415
25 1 -24.4292 -67.0053 -5.55687 770.738 1408.72 953.217 38.6156 -86.95 -148.253 -826.689 645.746
26 1 -21.9542 -69.9181 -2.11901 996.926 1541.44 1033.44 1.45877 -31.1969 -54.5127 -825.254 538.317
27 1 -21.902 -66.8834 -3.61665 931.196 1498.28 1016.61 -74.632 22.4961 -108.79 -821.052 578.085
30 2 -20.527 -66.7578 -4.4623 -500.122 -626.368 -394.647 -31.4486 -185.097 58.0396 -247.411 395.265
31 2 -24.5261 -68.4458 -6.31713 -484.388 256.415 -504.975 45.8758 22.1528 110.949 -257.863 780.5
32 2 -21.8743 -68.4548 -2.95409 -416.266 617.327 -357.906 25.7301 -0.0526101 -199.989 -257.311 1064.6
33 2 -23.0892 -66.8749 -4.75053 -682.812 -677.604 -241.423 -6.76858 254.128 23.605 -243.187 622.98
34 2 -23.0825 -69.8708 -0.964945 -579.798 -624.248 109.135 69.6425 -274.075 -46.6127 -244.129 868.129
36 2 -22.0285 -65.4434 -2.79858 -521.152 563.083 -464.746 61.2565 50.1128 257.126 -249.474 1155.3
131 2 -24.5454 -65.4801 -6.41538 -533.706 547.551 -531.118 -61.0992 6.91375 -155.68 -239.511 1118.2
2521 1 -19.0852 -66.9315 -5.10426 858.648 1189.6 1135.48 -22.3618 -41.6419 26.6218 -829.175 321.519
2525 2 -20.5827 -70.075 -1.20772 -477.033 -790.873 -360.536 -133.793 209.515 -85.1532 -235.916 596.467
2527 2 -18.9316 -68.3781 -5.90141 -444.022 277.485 -468.03 62.5258 112.844 210.266 -254.355 849.138
2627 2 -18.8568 -65.5474 -5.96312 -531.184 350.126 -541.562 -73.8966 156.461 -145.625 -247.049 969.228
2536 1 -19.3959 -70.0532 -0.173988 861.185 1520.19 794.009 91.0841 -116.546 -71.4556 -832.394 751.019
2436 2 -22.0024 -71.4284 -2.88834 -507.561 649.693 -386.355 -64.7988 -31.2079 297.555 -243.291 1222.62
35 2 -24.5024 -71.3097 -6.33321 -528.259 398.83 -485.149 4.88792 17.4746 -94.8727 -258.685 921.616
7517 2 -10.3979 -69.9312 -1.20769 -594.573 -696.551 -283.125 16.3991 147.919 19.3511 -244.505 454.676
2529 2 -17.982 -66.917 -3.87773 -396.879 -666.332 -351.879 -34.9753 170.647 -5.37327 -244.595 421.75
2530 2 -17.9801 -70.014 -0.91906 -506.749 -747.166 -356.367 40.6691 -147.032 -49.4533 -242.764 440.141
2522 1 -16.5458 -69.9925 -1.64033 829.949 1352.42 862.484 51.9907 -61.7398 -5.28146 -831.195 525.989
2523 1 -16.5703 -67.0906 -3.18894 889.486 1335.04 883.989 -40.1159 -112.564 21.9418 -834.905 495.264
2526 2 -15.376 -67.0685 -4.25889 -334.775 -659.345 -381.846 73.3534 -136.023 -22.9478 -245.743 406.832
2528 2 -16.4854 -68.5267 -2.41763 -577.519 271.874 -531.512 -35.3114 45.3323 -44.1309 -251.253 836.813
2532 2 -16.4225 -65.5966 -2.3692 -551.942 373.248 -502.884 16.812 -13.1971 166.778 -238.808 947.528
5017 1 -14.2113 -67.1034 -5.39985 931.932 1202.6 992.714 -76.8819 -75.8358 -27.7237 -835.457 312.725
5018 1 -11.7546 -69.9506 -1.99971 907.422 1449.3 895.947 50.5789 -96.2045 31.2645 -829.278 581.679
5019 1 -11.6881 -67.0486 -3.57449 771.152 1341.02 923.67 -28.5757 -87.106 66.2254 -830.127 547.233
5023 2 -14.369 -68.5806 -6.17243 -480.353 240.928 -327.789 121.037 44.4929 291.606 -248.399 859.343
5024 2 -11.8214 -68.4597 -2.75658 -591.895 390.469 -629.777 33.0628 -29.4568 -73.1639 -248.182 1012.73
5025 2 -12.8065 -67.0821 -4.65621 -667.582 -679.409 -541.703 39.6335 -1.19262 34.4515 -247.758 160.473
5026 2 -12.9214 -69.9794 -0.865768 -538.798 -732.049 -227.172 44.1783 -149.041 -104.183 -241.425 547.481
5028 2 -11.7664 -65.5141 -2.8214 -485.803 448.656 -372.601 -41.1662 -74.3604 247.836 -250.288 993.07
5123 2 -14.343 -65.7835 -6.34722 -507.178 505.874 -356.492 30.5408 -25.6903 -244.936 -244.583 1039.75
5021 2 -15.4393 -69.881 -0.511522 -611.877 -673.897 -313.111 -19.8502 156.125 69.8099 -245.673 447.845
4932 2 -16.4469 -71.485 -2.36006 -530.616 379.163 -422.527 -6.44609 0.780644 196.029 -253.334 925.447
27582 2 -25.786 -61.1163 -4.51334 -775.518 -675.185 -242.485 -17.4677 -39.9588 127.556 -243.803 543.348
125 2 -25.584 -64.0553 -0.632123 -198.478 -633.858 -224.993 50.5447 290.316 26.6152 -242.799 664.345
2620 1 -19.1095 -64.1023 -6.77315 981.078 1419.66 952.817 -210.81 -88.5522 -95.5497 -838.106 624.33
122 1 -21.8425 -63.9755 -1.94532 881.164 1367.79 1033.8 13.165 -67.975 -21.0952 -830.497 448.935
127 2 -24.454 -62.5802 -6.2621 -531.242 269.398 -526.571 -20.3299 1.50078 109.383 -251.321 821.247
128 2 -21.9993 -62.5009 -2.73536 -532.604 437.946 -532.153 -6.57415 -3.33171 -130.326 -247.534 996.317
130 2 -22.9971 -63.9694 -0.805346 -547.226 -715.4 -354.882 -50.8222 -139.115 73.4317 -240.494 423.805
2621 2 -20.4923 -64.0183 -1.14952 -690.615 -667.052 -426.706 -12.2148 145.161 -7.90168 -245.543 357.539
2623 2 -19.0125 -62.5703 -6.09757 -557.448 440.042 -587.701 -19.0899 -69.243 116.016 -244.892 1040.16