ITEM: TIMESTEP
1340000
ITEM: NUMBER OF ATOMS
29952
ITEM: BOX BOUNDS pp pp pp
-2.5615833775063237e+01 3.5601128117061187e+01
-1.0600006231625468e+02 1.1598535665045343e+02
-2.1035324467156940e+01 3.4903177627851115e+01
ITEM: ATOMS id type x y z v_StrAtomXX v_StrAtomYY v_StrAtomZZ v_StrAtomXY v_StrAtomXZ v_StrAtomYZ c_PEAtom v_VMS
7392 2 -12.2117 -71.3745 -15.1766 300.122 -468.967 -975.126 -118.094 28.2532 68.2375 -273.296 1138.06
4896 2 -16.3063 -71.8507 -17.9488 -384.508 -97.1544 -536.063 -42.0784 -38.0941 -63.0405 -172.719 413.132
4904 2 -18.5267 -68.2062 -15.8862 -161.503 -616.342 -466.191 -336.983 94.9413 201.518 -318.898 806.642
2400 2 -19.8289 -68.4877 -18.3355 167.463 -495.281 -192.949 -259.201 564.284 -116.416 -271.103 1236.01
4901 2 -21.0467 -68.2278 -15.1659 100.648 -607.806 -468.315 -77.8228 164.027 -104.178 -284.991 744.301
4912 1 -19.5607 -68.0686 -14.563 438.98 735.037 1119.73 248.82 316.264 -191.158 -736.006 972.087
2316 2 -22.1868 -68.0773 -17.5872 -689.394 -453.75 -315.029 -26.4644 -73.0689 -155.122 -274.165 444.71
2494 2 -22.2625 -68.0006 -20.292 -89.8089 -505.898 35.2318 -153.449 568.606 -199.317 -274.671 1183.45
2410 2 -23.7819 -67.8208 -15.5353 8.8517 -523.124 -738.775 -202.05 -152.899 -161.071 -274.937 845.377
2486 1 -21.356 -67.8509 -18.9347 1356.41 877.999 972.539 78.3642 109.098 -104.392 -761.605 528.589
2402 1 -22.2727 -67.677 -16.0506 531.862 862.493 981.467 237.238 268.8 337.889 -779.444 943.886
2416 1 -25.1677 -67.4739 -14.8165 367.932 1006.36 1209.52 -186.862 -45.676 -9.84213 -761.279 830.584
4985 2 -20.8028 -66.2752 -19.0838 -484.431 -99.8183 -544.047 231.752 -146.739 -147.021 -278.847 681.893
2407 2 -23.7464 -65.9555 -20.3322 -373.924 -502.268 -169.697 -71.7493 -203.48 191.084 -260.921 577.571
2408 2 -21.9697 -66.0871 -16.0729 -429.656 -443.358 -583.257 -77.6451 -57.0238 -166.317 -268.593 364.008
2401 1 -24.551 -65.1737 -19.1654 590.949 1007.58 881.108 3.02254 18.4616 99.9529 -801.137 409.761
2409 2 -23.5773 -65.121 -17.9158 -453.056 -534.38 -726.572 -70.1307 -58.7228 -170.854 -276.103 414.554
4897 1 -20.3408 -64.7517 -18.9321 667.678 768.745 943.32 -21.8918 271.281 468.023 -775.555 968.343
2403 1 -22.4369 -64.7736 -16.8844 867.556 542.691 956.102 44.5402 123.785 -92.7032 -782.931 468.876
4905 2 -18.7647 -64.5915 -18.5656 -271.551 -546.068 -620.429 132.365 159.208 -81.9978 -270.985 500.076
4900 1 -18.3975 -68.3541 -17.6065 893.196 750.856 999.795 141.66 -161.646 473.098 -759.238 925.664
4982 1 -16.1682 -70.6568 -17.1016 1060.59 353.328 1608.5 50.2167 8.60498 -170.567 -800.362 1132.7
7478 1 -10.8853 -70.5089 -15.2091 628.926 98.2258 1968.83 14.0989 -95.1526 59.7548 -715.711 1681.23
4812 2 -16.8642 -70.3423 -15.5932 -438.808 -250.64 -692.721 -141.832 -64.7322 110.013 -269.858 506.838
7396 1 -13.4234 -70.3515 -15.4861 201.271 231.724 2011 52.4391 16.5938 1.66698 -737.304 1797.23
7481 2 -14.5501 -70.4145 -16.6158 158.957 -174.467 -681.794 -151.06 427.994 -168.439 -272.789 1113.92
4990 2 -17.1658 -69.3369 -17.7735 157.581 -289.1 -581.565 -352.212 212.571 -189.202 -263.331 1015.29
7486 2 -12.1052 -69.385 -16.042 58.5724 -200.523 -1168.53 -116.529 23.6057 -101.727 -304.029 1152.57
4898 1 -17.314 -69.0253 -14.9294 68.3754 870.069 1186.86 448.851 1.80703 -114.865 -727.255 1281.03
7397 2 -16.0533 -68.0682 -14.6632 67.3542 -438.14 -631.296 148.083 82.2894 -12.0211 -291.889 690.657
7394 1 -12.0333 -67.7229 -15.8864 777.375 221.003 1544.51 52.196 64.6886 562.775 -743.013 1515.17
7402 2 -13.3902 -67.4 -15.065 22.7998 -530.396 -984.375 -24.7489 -73.8872 50.8479 -275.092 888.388
7400 2 -12.3066 -67.0577 -17.3147 -504.15 -339.311 -651.062 -54.0798 195.275 -295.288 -275.931 676.556
4903 2 -17.8975 -66.8537 -17.8766 -419.997 -160.921 -722.688 213.418 -49.9394 -198.983 -269.821 707.156
7401 2 -13.9408 -65.9145 -19.0538 -282.782 -549.728 -192.101 114.018 339.181 -106.819 -267.599 722.533
7395 1 -12.556 -65.76 -18.1664 800.997 807.278 931.974 29.5816 -74.3019 600.107 -780.945 1056.38
7398 2 -11.388 -65.7227 -19.2983 -342.59 -650.399 -388.985 -102.204 -182.612 -40.891 -269.125 467.988
7393 1 -15.0194 -65.2445 -20.0478 483.536 1064.43 841.994 -3.60075 152.501 341.182 -777.899 822.634
4899 1 -17.431 -65.2802 -18.0342 582.899 873.735 1123.39 -66.4981 -64.1607 60.5196 -778.911 506.091
4902 2 -16.2871 -65.0855 -19.1885 -574.606 -510.056 -395.384 155.947 -142.53 -178.635 -276.381 504.333
4908 2 -17.0269 -64.6905 -16.6141 -402.734 -365.97 -474.537 46.5926 -28.6174 87.1098 -277.379 202.19
7404 2 -12.57 -64.5118 -17.1421 -300.117 -220.817 -239.313 41.3458 66.0029 178.338 -283.657 344.637
7399 2 -13.9581 -69.5052 -14.2598 -383.632 -288.354 -821.977 -230.482 -133.905 246.565 -276.005 799.081
2500 1 -19.7906 -62.5496 -20.9126 733.313 993.036 825.349 -19.4897 24.242 74.004 -770.791 267.123
2406 2 -21.1386 -64.1969 -17.6643 -396.586 -440.623 -502.097 -5.14508 -115.365 -47.513 -272.888 234.957
2507 2 -20.5364 -63.8174 -20.2123 -545.479 -223.138 -447.393 120.816 -175.742 -234.624 -277.175 619.273
11 2 -24.689 -63.7242 -19.9152 -418.898 -240.082 -309.954 105.737 44.2719 -401.721 -260.806 740.219
2412 2 -22.9573 -63.7024 -15.8426 -584.111 -402.912 -574.064 54.9339 -25.3813 130.821 -260.842 305.683
2506 2 -18.3267 -62.7766 -15.26 -390.672 -439.55 -574.71 -35.3299 -182.33 116.133 -264.272 413.765
2501 2 -20.9731 -62.3293 -14.8265 -186.681 -435.288 -595.514 -73.5614 61.9899 21.967 -261.39 395.627
2 1 -22.5061 -62.2577 -15.2682 918.452 730.21 955.953 36.6336 170.732 -48.1252 -815.066 377.258
7 2 -24.473 -61.1874 -20.7208 -442.025 -559.659 -573.878 53.523 91.8854 -5.03862 -268.501 222.961
2503 2 -19.7385 -61.2918 -19.9022 -462.214 -286.152 -313.582 -5.50309 -2.80348 229.215 -271.514 429.714
8 2 -22.6452 -61.1871 -16.4562 -651.361 -541.731 -520.299 -48.6418 -21.5194 -11.5595 -255.905 153.999
9 2 -23.1201 -59.9209 -18.6554 -255.732 -435.096 -475.36 25.0256 131.305 115.101 -265.952 366.553
2497 1 -19.4017 -60.1846 -18.7405 771.353 672.459 1183.89 105.72 -1.0288 -59.089 -803.162 514.559
6 2 -20.6289 -60.1184 -17.7345 -192.906 -403.085 -604.065 -32.3242 -78.6918 11.3977 -265.577 385.891
1 1 -24.4699 -60.0665 -19.5812 910.018 703.2 1115.85 134.703 138.539 -30.5823 -808.08 492.475
3 1 -22.2116 -59.9713 -17.3616 973.334 659.768 721.936 6.05634 70.6539 -90.5725 -816.051 349.844
2603 2 -19.2828 -58.8204 -19.5774 -560.657 -427.753 -487.568 -103.049 69.7728 -84.2647 -263.015 284.702
107 2 -24.7689 -58.6593 -20.2531 -482.292 -468.989 -628.944 -49.8207 -99.1522 -111.559 -250.084 312.907
12 2 -22.4227 -58.7169 -16.4364 -572.144 -587.933 -372.511 -32.2639 -105.059 136.945 -253.758 368.444
2597 2 -20.8599 -58.1589 -14.439 -315.744 -431.459 -610.199 -32.3468 100.559 53.9003 -255.105 328.955
98 1 -22.3657 -57.9033 -15.0103 766.191 679.492 1022.7 -23.6242 225.567 11.4545 -818.115 500.262
2596 1 -19.6299 -57.4959 -20.4036 1032.62 657.133 814.819 -126.515 106.123 -97.5405 -800.939 465.826
2602 2 -18.265 -58.5695 -14.7714 -221.004 -415.945 -410.533 21.8428 -216.362 1.97662 -257.473 422.914
2686 2 -18.2007 -56.9941 -20.9398 -450.143 -570.335 -568.079 19.5986 -134.456 10.6639 -261.861 264.402
2725 1 -19.5216 -50.5324 1.88786 1067.08 1182.53 596.183 -8.13128 38.1711 -17.9213 -827.392 543.115
2505 2 -17.9681 -60.5512 -18.1022 -182.528 -457.578 -629.702 -77.2004 77.7355 66.2791 -264.351 449.231
5003 2 -14.3697 -63.8311 -20.5119 -373.363 -355.079 -527.437 174.131 -87.1797 -116.204 -276.701 425.635
4997 2 -15.9968 -63.4253 -14.5402 -359.943 -490.398 -610.463 167.536 -2.91185 32.3207 -261.308 366.69
5002 2 -13.4096 -63.1113 -15.0294 -434.108 -395.613 -448.485 -78.4916 -153.649 142.531 -274.061 390.505
7493 2 -10.8879 -63.384 -15.2367 -336.279 -367.41 -503.201 129.852 202.035 90.9198 -266.11 470.611
4994 1 -12.2665 -63.2872 -16.0883 753.587 683.511 1225.82 -7.2076 227.756 -35.7334 -786.375 648.544
2498 1 -16.915 -63.3188 -15.8005 632.137 837.927 992.504 -152.788 -121.738 -201.622 -794.574 578.362
2504 2 -16.4015 -62.1771 -16.8788 -499.039 -106.174 -380.341 144.397 -22.2146 -200.072 -268.757 553.098
5000 2 -12.182 -61.8777 -16.9496 -470.768 -239.889 -608.498 -2.20797 -1.84861 -48.0103 -270.435 333.187
4999 2 -13.5836 -61.2295 -20.3394 -549.103 -479.167 -643.96 -30.5514 -79.6543 20.305 -267.833 208.792
2499 1 -16.4954 -60.6737 -17.4686 871.379 778.99 1102.66 67.4223 -99.9817 -104.808 -801.72 399.97
2502 2 -15.371 -60.321 -18.6573 -385.985 -355.492 -355.547 73.7699 -195.615 -81.1179 -266.443 389.602
4995 1 -11.8874 -60.3613 -17.1213 893.835 613.797 1125.89 -132.779 126.062 32.029 -796.612 548.54
4993 1 -14.0343 -59.9682 -19.4199 864.438 497.318 869.232 -69.2346 -12.2455 140.114 -804.575 458.57
5001 2 -12.9028 -59.786 -18.2761 -328.245 -517.827 -356.312 -24.9377 163.295 -56.332 -260.634 350.414
2508 2 -16.3949 -59.5743 -16.3384 -539.114 -341.192 -577.712 -101.492 -73.2014 169.877 -258.713 426.443
5004 2 -12.0268 -59.4351 -15.7841 -467.841 17.2165 -402.9 -9.94152 -25.8092 292.729 -265.605 683.64
5099 2 -14.1474 -58.7865 -20.3994 -460.346 -666.088 -524.362 -8.51154 15.6691 -110.465 -267.065 266.117
2594 1 -16.7664 -58.3398 -15.343 953.384 737.221 989.717 82.7826 -46.2478 -142.688 -814.587 379.414
5090 1 -12.0823 -58.0308 -14.9297 619.199 949.265 981.643 -87.3619 71.2467 -53.2443 -813.597 409.034
5093 2 -15.7063 -58.3303 -14.1651 -316.64 -506.482 -567.893 -30.4117 106.448 44.9675 -256.57 307.089
7589 2 -10.6569 -57.8027 -14.2851 -372.149 -578.654 -557.286 100.034 119.894 120.921 -256.057 394.585
9893 2 -10.6299 -67.5051 -15.1127 19.1706 -314.451 -661.758 -196.916 214.292 -58.4243 -286.347 782.384
234 2 -21.1181 -50.7224 2.2234 -402.05 -592.194 -367.155 22.0345 -86.7506 28.1588 -250.417 265.367
103 2 -24.6004 -56.1382 -20.1291 -530.914 -597.592 -410.477 13.1291 153.645 90.4473 -253.302 350.515
104 2 -22.6049 -56.3872 -15.351 -518.725 -370.691 -579.044 -7.87295 51.0843 -82.4956 -261.872 250.824
2599 2 -20.3499 -56.4288 -19.4392 -573.182 -309.113 -517.883 -28.5941 -73.3621 99.1585 -265.354 326.012
105 2 -23.3785 -55.4771 -17.765 -497.247 -616.672 -277.126 -31.8043 84.49 -26.7622 -257.802 340.004
2601 2 -18.4106 -55.7761 -17.8651 -576.147 -525.872 -570.167 40.2447 121.67 70.0952 -265.522 257.434
2593 1 -19.8811 -55.4296 -18.3019 802.672 690.543 941.427 110.065 -35.749 -108.926 -806.825 350.936
97 1 -24.561 -55.1706 -18.7836 825.356 1077.11 892.774 56.0045 96.1737 71.0035 -820.36 321.299
102 2 -20.9144 -55.4662 -17.0423 -374.005 -512.39 -450.648 -69.4943 -208.276 90.5868 -257.502 428.557
99 1 -22.4064 -55.2498 -16.4798 861.138 766.147 1060.11 4.14319 103.259 -39.1397 -809.766 322.718
203 2 -24.4774 -53.6794 -19.3525 -434.911 -364.544 -224.037 52.8477 -181.208 -307.939 -252.649 652.647
2699 2 -19.8631 -53.9211 -18.8415 -537.662 -253.388 -530.187 27.638 14.5159 -90.4459 -262.665 325.896
108 2 -22.6431 -53.7258 -16.0956 -522.726 -212.582 -664.61 -33.9743 -111.541 -42.0178 -262.989 454.322
196 1 -24.4107 -52.6914 -20.7243 553.285 673.66 1320.51 100.493 -34.0695 -111.281 -811.384 762.69
2704 1 -19.4506 -52.578 -14.3391 766.723 832.578 901.111 -45.9676 47.3595 -258.731 -823.453 476.907
2692 1 -19.69 -52.8059 -19.9931 941.915 527.512 1128.66 -32.051 28.766 11.3991 -810.352 538.466
2693 2 -20.9278 -52.3195 -14.8946 -247.773 -430.843 -515.211 -161.583 126.951 -79.1335 -258.874 448.934
194 1 -22.4593 -52.2594 -15.4646 990.172 711.603 1251.08 -126.631 114.099 26.5279 -812.325 554.644
199 2 -24.2585 -51.2211 -20.1852 -469.574 -598.376 -692.561 -18.234 49.6419 46.7501 -262.629 229.214
2695 2 -19.8819 -51.3445 -19.5059 -508.115 -313.531 -658.584 -46.669 -65.6866 -52.7173 -265.035 342.926
200 2 -22.7265 -51.0562 -16.478 -502.419 -531.432 -485.689 47.6346 -56.0912 -71.7094 -260.138 182.427
2698 2 -18.3528 -52.562 -15.4936 -330.822 -560.238 -626.735 2.51387 -48.8973 42.0432 -259.722 291.211
202 2 -23.5032 -52.1462 -14.1695 -353.799 -555.546 -300.134 23.3645 -288.736 91.1642 -249.008 575.399
2782 2 -18.2343 -52.9962 -20.712 -198.707 -392.043 -360.383 69.8595 -294.21 -47.0321 -259.754 559.657
210 2 -20.6024 -50.5989 -11.3911 -239.406 -535.29 -393.192 70.4266 -255.045 27.8903 -241.213 527.307
2600 2 -16.7059 -57.0557 -16.2989 -457.447 -261.761 -411.639 -31.415 8.64613 -121.39 -265.958 280.747
5096 2 -12.4499 -56.7352 -15.8003 -493.263 -221.327 -645.042 21.6728 -79.5841 54.1662 -266.009 409.233
5095 2 -13.8426 -56.3332 -20.044 -538.747 -446.56 -408.926 -70.2273 -85.7784 186.065 -249.535 392.574
2598 2 -15.8569 -55.6925 -18.4386 -299.62 -493.884 -444.035 38.8251 -179.198 -52.3906 -255.282 373.673
2595 1 -16.9682 -55.7349 -17.2075 679.637 757.657 1230.7 20.2907 -43.4397 -70.673 -807.553 537.257
5097 2 -13.3042 -55.3184 -17.7601 -229.273 -609.394 -725.024 -16.5733 55.4069 -56.4016 -258.504 470.524
5091 1 -12.2457 -55.3545 -16.5475 962.724 734.858 957.985 40.1943 31.0347 58.7797 -813.841 262.615
5094 2 -10.7318 -55.1664 -17.1119 -363.109 -465.712 -417.766 120.067 -100.028 -27.6693 -257.719 288.91
5089 1 -14.3881 -55.2918 -18.9075 980.203 851.726 840.427 -57.4306 -58.5717 26.1296 -818.245 200.8
2604 2 -16.7203 -54.3309 -16.5211 -496.122 40.4961 -632.309 21.4709 8.33185 -4.9253 -265.178 617.454
5100 2 -12.5099 -53.9968 -15.7154 -641.168 -499.328 -797.417 -32.9857 7.20836 -90.3965 -248.755 307.619
5195 2 -14.3986 -53.8532 -19.6515 -566.355 -387.084 -577.899 39.4571 13.431 -79.4509 -259.095 241.848
2690 1 -16.8822 -52.7286 -16.0894 1054.72 951.113 956.204 -13.8026 99.233 26.8614 -803.671 206.18
5189 2 -15.7355 -52.4332 -14.9509 -480.838 -498.864 -279.739 0.476551 108.148 19.5671 -258.532 283.95
5186 1 -12.193 -52.5508 -15.2638 694.475 554.852 1163.69 -34.1417 0.497036 -182.62 -841.604 639.313
2696 2 -16.6771 -51.6128 -17.2399 -580.397 -138.685 -512.403 101.226 -73.488 -116.304 -263.946 507.168
5192 2 -12.0457 -51.5057 -16.4968 -496.574 -203.45 -476.508 23.5918 -6.9129 -153.844 -250.858 391.484
5191 2 -13.9806 -51.3148 -20.3211 -446.921 -201.279 -675.382 -5.04818 -64.3837 25.2181 -255.338 427.872
7685 2 -10.756 -52.56 -14.5547 -357.69 -574.247 -687.05 -38.5701 32.1951 18.7782 -241.749 304.434
5188 1 -14.3057 -52.8123 -20.8146 693.919 670.176 1117.07 -22.2375 -39.8836 123.626 -817.515 491.707
5194 2 -13.3534 -52.2232 -14.2608 -447.859 -617.114 -578.142 191.256 -169.042 -114.592 -237.042 508.357
7410 2 -10.4073 -65.6102 -11.2501 -591.359 -669.395 -322.944 60.2269 -88.8061 -59.2199 -235.597 379.664
4906 2 -18.4893 -69.1118 -13.878 105.737 -521.422 -863.071 -134.166 32.0292 -43.138 -264.365 887.121
2422 2 -23.7975 -67.8051 -7.87278 109.193 -382.39 -534.393 -61.7135 -217.484 -4.91116 -258.913 702.051
2414 1 -22.2069 -67.6403 -8.13184 952.202 1125.31 700.728 -125.781 74.8748 96.7828 -814.427 478.663
2328 2 -22.0059 -67.1916 -9.64463 -671.322 -599.873 -395.624 15.4905 -150.554 -229.261 -251.399 536.486
4915 2 -19.4445 -66.8127 -13.6594 -562.975 -670.091 -374.317 33.7071 -155.552 219.634 -277.397 536.646
2419 2 -24.8713 -66.5557 -13.5759 -374.564 -487.485 -45.0789 47.045 143.673 206.334 -269.87 595.654
2418 2 -20.7609 -65.8019 -11.5719 -607.956 -500.252 -340.906 35.2428 -161.347 -42.8688 -264.814 376.153
2421 2 -23.2978 -65.8153 -11.5063 -377.933 -583.239 -373.166 32.0242 135.657 94.1984 -252.109 357.851
2415 1 -21.905 -65.9038 -10.5597 915.334 1091.85 631.915 24.5299 441.098 213.848 -824.266 940.325
4909 1 -19.5419 -65.583 -12.6547 1195.67 721.578 883.261 42.6066 69.5753 -268.476 -804.14 640.672
2413 1 -24.6165 -65.5297 -12.2611 825.449 913.836 1014.69 54.7789 -111.228 36.1729 -822.469 277.381
2424 2 -21.8727 -64.6724 -9.47946 -597.393 -458.677 -268.412 0.826446 -30.0946 326.393 -240.674 635.729
4913 2 -21.0547 -68.5676 -7.47968 8.49327 -745.49 -150.036 303.244 295.151 100.42 -226.809 1020.57
2420 2 -21.3976 -66.5062 -7.26881 -6.95047 -1109.79 -394.472 104.188 127.519 -22.7474 -230.07 1010.92
2428 1 -25.2907 -67.7618 -7.17817 927.102 1131.46 942.938 -38.4689 -125.724 -50.5613 -810.943 313.534
4918 2 -18.6248 -67.1913 -7.36977 117.315 -447.829 -625.461 -0.530138 -276.843 7.69188 -266.248 825.49
4917 2 -18.1394 -65.4065 -11.8153 -257.385 -492.61 -276.876 58.5039 162.739 136.334 -258.168 443.404
7408 1 -14.5404 -67.9928 -14.1259 486.323 622.788 1145.51 -21.8887 206.306 -290.099 -772.66 863.01
7308 2 -10.5906 -69.6016 -13.9346 -582.276 -20.6074 -748.059 161.26 167.904 206.069 -274.685 852.088
7409 2 -16.0586 -68.3095 -7.71693 24.406 -733.548 -350.315 -11.3655 135.653 29.9975 -234.14 699.415
7414 2 -13.4551 -67.4108 -7.62755 -78.3141 -405.549 -834.888 13.659 10.5272 -29.7577 -257.473 659.892
4910 1 -17.1788 -67.1872 -8.07753 728.168 1255.64 903.059 -68.4826 38.9576 105.923 -803.41 518.504
7406 1 -11.8422 -67.3442 -7.82571 600.08 1097.13 819.193 -206.878 -265.118 -7.03133 -814.445 724.958
7411 2 -14.4769 -67.1268 -12.811 -553.744 -166.529 -549.948 -11.6019 23.9689 289.831 -264.572 634.518
7320 2 -11.5587 -67.1164 -9.35249 -619.4 -607.539 -532.378 19.7124 2.05509 -37.6659 -251.094 110.072
4824 2 -17.4473 -66.7713 -9.61401 -652.747 -474.746 -227.409 -84.8232 -1.13955 -267.528 -248.762 610.891
4916 2 -15.9824 -66.1607 -7.59822 -35.2646 -967.99 -607.094 47.7769 -51.9668 -36.9754 -234.78 826.23
7405 1 -14.4074 -65.7427 -11.9412 902.834 965.774 874.694 65.1988 253.336 -174.28 -820.39 550.395
4914 2 -15.6697 -65.581 -11.0713 -573.716 -586.142 -590.244 -53.4967 -44.7726 60.7986 -256.385 160.969
4911 1 -17.1737 -65.4502 -10.518 918.171 1145.64 802.558 14.0952 133.947 8.17731 -824.797 382.137
7407 1 -11.6362 -65.78 -10.1931 1110.88 990.114 522.801 -63.5868 -5.26003 -67.047 -836.741 561.337
7413 2 -13.0056 -65.7207 -11.058 -230.296 -616.245 -293.075 -26.0257 213.925 64.4588 -247.405 529.582
5015 2 -14.3094 -64.4962 -12.9766 -670.87 -155.921 -509.211 86.1006 -111.935 -111.501 -253.814 552.436
7416 2 -11.5726 -64.5564 -9.2233 -611.464 -615.165 -688.36 145.164 95.2275 69.6751 -243.282 332.608
9905 2 -10.8558 -68.4087 -7.04876 -132.564 -727.601 -364.486 75.7989 373.994 50.1805 -218.946 845.138
7412 2 -11.0546 -66.2848 -6.98512 -92.4503 -1159.03 -595.12 -57.4572 153.464 -23.0863 -231.282 967.622
7420 1 -14.9175 -67.2786 -7.09025 379.344 1287.15 946.242 -65.2279 83.2388 -50.3728 -817.662 819.761
5127 1 -11.8136 -54.9439 3.10522 802.239 1202.93 906.258 -7.9955 123.481 40.2828 -850.608 424.852
2512 1 -19.5138 -62.7271 -14.2028 905.978 975.577 967.594 49.3195 144.185 -235.028 -811.132 489.624
106 2 -23.409 -58.3196 -13.9481 -515.295 -627.047 -557.031 -118.154 -55.2067 193.225 -254.775 415.45
2519 2 -19.662 -64.2838 -13.5992 -543.002 -87.7569 -369.574 73.6029 -117.433 -200.106 -258.054 579.762
10 2 -23.5147 -61.9082 -14.0897 -339.17 -532.814 -500.58 -4.1247 -270.961 -67.5841 -251.57 516.05
23 2 -24.5219 -64.0878 -12.9783 -573.193 -336.206 -666.583 -4.32186 -52.5386 34.5591 -253.117 314.542
22 2 -23.5325 -64.0713 -7.56516 -148.535 -543.855 -274.733 189.227 -359.954 -102.057 -239.766 806.03
14 1 -22.0765 -63.6321 -8.2347 1372.53 1221.98 921.117 91.8075 153.864 -163.651 -849.702 578.906
16 1 -24.8563 -62.6215 -13.4674 1026.66 883.721 1004.09 41.2013 54.1291 -59.5859 -825.151 205.545
2608 1 -19.4474 -58.1829 -13.6959 851.954 690.415 1232.96 45.0669 10.0259 -0.0490611 -822.487 489.081
20 2 -22.0816 -62.1765 -8.98245 -592.357 -178.806 -178.805 32.5929 -108.794 -321.259 -242.469 720.653
2515 2 -19.252 -61.7 -13.0297 -669.215 -463.033 -544.334 3.43461 -17.0729 70.417 -256.839 219.417
21 2 -23.6229 -60.9306 -10.6915 -366.039 -548.264 -560.802 -65.8858 -1.22091 115.501 -249.075 297.819
18 2 -20.9889 -61.1455 -11.2182 -386.957 -520.813 -489.151 44.5715 -170.701 -48.4176 -248.717 339.25
15 1 -22.1322 -60.9645 -10.1142 928.16 1041.22 1076.2 58.1359 91.1913 -143.855 -842.305 339.309
2517 2 -18.5142 -60.6964 -10.6966 -685.014 -599.253 -569.735 51.7307 -35.5273 151.415 -249 302.245
2509 1 -19.5576 -60.7062 -11.8343 901.868 871.968 621.899 49.0105 -54.3031 -133.556 -833.32 374.792
13 1 -25.0583 -60.5118 -11.2734 931.329 727.605 844.258 167.33 274.634 -18.2516 -838.375 585.334
24 2 -21.8615 -59.5001 -9.48058 -584.057 29.796 -460.984 11.9888 -20.9697 204.861 -242.045 666.385
2615 2 -19.5482 -59.239 -12.4885 -532.952 -416.85 -490.555 78.1953 -128.357 -97.9449 -250.313 326.963
119 2 -24.8934 -59.1587 -12.0309 -693.743 -616.019 -682.966 -33.5984 -11.9288 86.1317 -249.113 177.169
112 1 -24.8156 -58.0765 -13.1741 885.276 931.468 726.326 -121.57 33.0198 14.5016 -826.073 288.064
124 1 -24.7853 -58.0473 -7.48549 988.426 1144.51 860.834 38.1762 6.92712 -4.40339 -836.558 255.209
110 1 -21.9728 -57.9048 -8.92999 1090.47 1211.33 938.704 -8.79217 -48.6973 43.5739 -831.765 262.726
118 2 -23.5633 -57.7472 -8.5172 44.7926 -627.287 -520.509 37.2908 -170.276 -16.8653 -245.293 695.224
2614 2 -18.4491 -57.6962 -7.66602 -616.024 -638.025 -359.049 -66.1658 -146.805 116.198 -243.405 436.428
2513 2 -20.8727 -63.6838 -7.1403 -350.65 -691.03 -92.6897 -101.498 251.416 -26.8626 -242.156 702.074
19 2 -25.5205 -61.621 -12.396 -534.472 -268.103 -389.86 -94.1082 4.62453 228.414 -248.464 486.309
4920 2 -17.3361 -64.2469 -9.46476 -585.967 -499.679 -81.5714 72.0391 4.2094 296.684 -245.589 705.708
5014 2 -13.088 -63.4247 -7.4894 -599.069 -613.873 -675.77 -7.44671 -10.8169 86.0827 -238.155 166.477
2510 1 -17.2703 -63.3706 -8.03327 1174.24 946.537 1033.28 -66.5923 336.991 -44.9322 -848.906 632.195
5009 2 -15.7971 -63.2357 -7.33606 -54.786 -687.461 -388.385 102.931 176.005 184.918 -235.475 726.504
5006 1 -11.6358 -63.4056 -8.10461 785.805 994.276 950.28 -59.3066 -1.20539 -224.186 -859.259 444.475
5008 1 -14.5282 -63.1539 -13.8528 1079.4 838.358 906.54 -5.73644 -34.4664 -65.2044 -802.543 250.467
5012 2 -11.6144 -62.0293 -8.96774 -566.012 -367.056 -416.477 -103.767 79.712 -163.071 -239.064 404.146
5011 2 -14.6916 -61.9158 -12.8444 -533.318 -335.279 -243.481 -55.5786 -128.864 233.39 -263.352 536.957
2516 2 -17.5291 -61.8926 -8.56969 -673.638 -338.563 -435.006 146.954 -171.677 -185.511 -242.907 587.97
2514 2 -16.0059 -61.1678 -10.6532 -610.873 -586.917 -389.745 -65.7011 -167.842 153.272 -247.606 460.558
5013 2 -13.4208 -61.0732 -10.6914 -500.606 -543.519 -461.949 52.924 167.101 103.791 -245.364 359.838
5010 2 -10.9563 -60.9949 -11.3942 -364.129 -493.274 -157.761 55.3098 -280.373 28.3709 -245.514 577.353
5005 1 -14.7511 -60.9314 -11.559 837.038 899.322 866.8 -66.704 182.992 -132.648 -831.836 411.71
2511 1 -17.2547 -60.7378 -9.68912 1086.39 752.185 982.523 -46.9919 -15.9968 -224.063 -831.072 495.754
5007 1 -11.9333 -60.8913 -10.0715 986.698 892.768 1179.17 -26.2154 -36.8794 -139.659 -840.427 358.614
5016 2 -11.8178 -59.4026 -9.50743 -552.377 -353.464 -578.568 -31.4441 -25.7532 73.1366 -250.101 257.808
5111 2 -14.8163 -59.3866 -12.027 -535.89 -232.722 -565.762 96.0693 -113.753 32.5887 -251.577 414.189
2520 2 -16.9827 -59.3206 -9.08518 -541.284 -500.191 -544.618 21.6101 -8.14804 30.7998 -260.964 79.2644
5098 2 -13.1379 -58.1331 -13.7535 -546.066 -547.32 -455.018 42.2364 -96.8412 49.425 -257.846 221.856
5104 1 -14.5616 -58.128 -13.0126 1035.18 610.169 945.406 49.8725 23.6918 -226.968 -819.298 560.558
5102 1 -11.8935 -57.8555 -9.08959 801.964 941.474 765.617 -60.1594 14.1688 -63.6224 -837.186 222.392
2606 1 -17.1708 -57.8359 -8.56418 677.288 936.128 938.67 -96.4505 90.8005 -164.821 -835.233 449.225
5110 2 -13.3674 -57.5115 -8.61381 -422.52 -602.031 -362.846 83.029 -171.691 41.9872 -252.467 401.124
5105 2 -15.907 -57.3617 -7.74448 -523.982 -496.758 -604.73 -39.0392 -59.4951 27.3624 -246.71 164.003
5116 1 -14.374 -57.6907 -7.35258 940.386 1162.06 829.403 -189.153 16.0074 -307.941 -831.01 691.841
7505 2 -10.5802 -63.3858 -6.94486 -505.492 -710.384 -240.226 -27.9243 183.285 137.079 -240.126 571.13
7601 2 -10.8904 -57.602 -7.89098 -445.574 -690.696 -513.944 38.6852 79.7463 69.4852 -244.559 293.347
2709 2 -18.1043 -50.6384 -10.9994 -703.877 -540.217 -408.043 -23.4559 5.56699 15.2537 -253.644 261.396
2609 2 -20.9971 -57.6981 -7.70652 -575.721 -663.964 -462.676 16.0009 54.2519 43.761 -248.863 214.207
116 2 -21.63 -56.8532 -10.1148 -534.052 -289.357 -320.46 2.24038 -65.7064 -161.014 -252.544 379.442
115 2 -24.9234 -56.5628 -12.6286 -485.309 -285.713 -511.135 -21.186 -43.9365 140.97 -257.303 335.284
2611 2 -19.086 -56.722 -13.156 -497.839 -150.441 -501.526 -30.261 -61.0672 121.694 -257.944 424.668
111 1 -21.7376 -55.3329 -10.6621 894.972 1068.25 784.651 -36.9528 136.137 -133.172 -835.277 417.389
2605 1 -19.21 -55.1937 -12.5618 1089.51 985.226 719.883 -80.0457 67.5711 70.751 -824.333 396.095
114 2 -20.6051 -55.0613 -11.7589 -306.935 -600.982 -515.537 -9.69759 -75.6161 92.1518 -250.438 333.993
109 1 -24.7355 -55.1275 -11.9224 1017.93 791.923 993.614 141.602 231.717 65.78 -823.898 529.516
117 2 -23.2031 -55.0524 -11.2386 -103.773 -547.675 -438.946 -33.5462 119.568 70.163 -249.598 470.787
2711 2 -19.247 -54.0115 -13.574 -562.913 -335.004 -641.3 -94.7219 78.7319 27.9947 -254.731 351.875
120 2 -21.4703 -54.3084 -9.46074 -633.68 -457.131 -508.266 56.1804 21.2803 135.019 -244.918 300.457
215 2 -24.8328 -53.9166 -12.9103 -627.721 -592.34 -610.849 -46.3019 -56.5417 125.506 -257.698 253.411
214 2 -23.3177 -53.2937 -7.94754 -401.595 -573.371 -415.042 75.3302 -244.001 4.95808 -234.958 472.32
206 1 -21.8002 -53.1131 -8.45499 982.761 954.522 656.122 -10.0463 -40.8769 -144.25 -849.74 407.438
208 1 -24.9196 -52.4789 -13.5151 950.096 921.206 767.98 -84.1597 8.7042 82.6696 -830.638 265.929
212 2 -21.6474 -51.7329 -9.24905 -661.274 -598.413 -601.18 42.7337 -98.2612 84.0713 -242.532 243.79
2707 2 -19.0867 -51.4523 -13.3254 -625.992 -541.263 -645.802 38.4186 22.5481 66.7486 -251.911 169.024
211 2 -25.2437 -51.3201 -12.331 -597.773 -101.674 -307.98 -7.98981 -66.0869 320.195 -242.461 712.177
2613 2 -17.9037 -54.9765 -11.5996 -254.277 -664.442 -331.438 33.8046 118.521 83.7642 -250.062 457.34
2705 2 -20.9034 -53.0818 -7.17576 -610.116 -663.637 -607.075 15.0405 -68.0108 177.833 -243.006 335.358
5108 2 -11.4474 -56.861 -10.2477 -503.666 -395.422 -578.925 66.9126 -8.9222 21.4076 -250.093 201.426
5107 2 -14.7462 -56.7243 -12.3759 -609.65 -423.692 -598.456 -3.61744 49.8023 -0.821916 -260.276 200.266
2612 2 -17.2878 -56.6723 -9.72829 -541.012 52.7947 -530.648 66.7447 -87.5427 -146.885 -245.081 669.06
5103 1 -11.4888 -55.3559 -10.8259 649.242 1089.42 857.68 -151.063 27.1398 -139.869 -840.304 524.226
5101 1 -14.4448 -55.2002 -11.9479 1057.5 828.23 1082.28 107.182 -57.5434 -42.1315 -815.595 329.52
5109 2 -12.8402 -55.1043 -11.608 -208.674 -566.992 -619.167 -38.1819 -21.0045 14.9615 -249.7 395.193
2607 1 -16.991 -55.1486 -10.2805 967.93 1280.17 843.161 79.0994 90.7034 -101.642 -828.86 475.884
2610 2 -15.475 -54.8973 -10.716 -285.066 -566.749 -379.86 19.241 -250.653 -9.16856 -253.886 501.471
5112 2 -11.5025 -54.2612 -9.67255 -642.08 -377.381 -516.783 52.7224 -7.60315 149.55 -241.465 358.059
2616 2 -17.3694 -53.9935 -9.17315 -652.645 -217.829 -348.477 -62.1393 -28.7717 233.213 -251.181 571.453
5207 2 -14.7219 -54.134 -13.1133 -587.678 -467.085 -508.506 -70.3169 69.6601 -42.8551 -262.207 214.858
5206 2 -13.0842 -53.2951 -7.89758 -326.316 -647.426 -587.969 12.1442 -21.8425 72.811 -240.803 324.55
5198 1 -11.6303 -53.1138 -8.52968 973.256 1097.9 772.01 -13.2071 47.0049 -125.935 -852.452 368.581
5200 1 -14.8398 -52.6833 -13.6675 994.131 822.117 923.688 2.11934 -178.022 -24.1922 -824.373 345.368
2702 1 -17.2627 -52.9442 -7.97867 1055.06 1044.89 820.27 -31.598 95.5869 -99.2522 -837.25 335.86
5204 2 -11.6555 -51.6734 -9.27187 -624.437 -341.315 -492.338 -25.9946 -44.6532 -78.0915 -238.59 294.129
2708 2 -17.645 -51.4489 -8.52939 -588.39 -441.526 -485.598 -55.5991 19.3399 -43.428 -246.795 181.913
5203 2 -15.1436 -51.6453 -12.4398 -587.348 -185.32 -378.169 58.8158 60.4429 313.312 -253.34 661.149
5201 2 -15.7231 -52.9326 -7.47886 -393.057 -590.342 -544.469 -93.9391 14.9608 8.25296 -246.687 243.567
2730 2 -16.1015 -50.488 3.49128 -455.603 -710.277 -463.967 -107.933 -44.9533 57.9522 -252.291 337.469
5202 2 -10.6758 -50.5962 -11.4797 -345.881 -541.967 -457.892 -12.1858 -188.659 42.0812 -246.98 376.254
4998 2 -10.3962 -60.1443 -17.744 -397.836 -508.586 -685.115 60.8728 -85.3379 -3.7256 -265.874 309.813
4924 1 -20.0838 -67.3547 -6.69467 1172.24 1228.9 856.166 -12.7555 189.244 -3.00285 -799.448 478.511
2431 2 -25.0476 -67.4588 -5.63232 -709.315 -224.604 -292.259 139.278 84.5689 321.264 -249.64 772.018
4927 2 -19.8648 -67.1144 -5.1321 -692.071 -547.727 -77.6491 41.5108 34.6922 242.931 -253.921 703.909
2432 2 -23.0144 -66.5915 -1.01232 -797.579 -441.947 -211.421 93.2248 -272.382 -84.1253 -258.551 729.026
4929 2 -18.513 -66.1861 -2.89722 -149.894 -605.329 -205.122 -12.9353 332.914 90.0945 -238.173 736.659
2433 2 -23.8067 -66.4569 -3.4517 -599.956 -661.01 -250.972 -69.179 29.855 65.1505 -248.023 420.225
2425 1 -24.9807 -66.2579 -4.52318 1114.09 1414.51 505.95 94.0051 155.786 -260.51 -832.677 972.469
2430 2 -21.2066 -66.2464 -3.00743 -307.856 -613.538 -246.348 66.8741 -358.245 -6.53699 -247.556 717.349
4921 1 -19.8532 -66.089 -3.8973 1295.53 1213.32 829.926 1.88878 209.672 -238.299 -836.806 698.231
2427 1 -22.687 -65.9359 -2.44412 1204.45 1098.95 534.147 26.8786 164.666 -20.2014 -832.565 688.806
2531 2 -19.7357 -64.6835 -4.7579 -529.183 -223.638 36.5095 88.083 -146.199 -349.352 -249.422 833.103
35 2 -24.8011 -64.7922 -5.27796 -622.301 -28.0002 -205.944 4.46256 -133.178 -184.818 -257.417 659.43
7332 2 -12.0435 -68.9316 -1.99994 -461.534 -212.363 -284.121 24.4918 -108.482 -117.415 -123.5 357.518
7418 1 -12.393 -68.186 -0.68031 1567.41 1000.83 1310.12 -148.907 -109.167 286.098 -935.652 767.635
7423 2 -14.7164 -66.9989 -5.54909 -683.86 -663.951 -483.786 211.82 76.5847 229.273 -233.952 588.506
4928 2 -16.3482 -66.825 -1.30227 -388.121 -496.851 -143.497 -76.9889 225.216 -98.385 -235.51 545.204
7424 2 -12.1962 -66.587 -1.08784 -738.214 -557.204 -442.415 17.7507 96.8298 -290.921 -199.184 591.352
4926 2 -16.045 -65.809 -3.72474 -527.577 -731.097 -295.637 166.448 -188.959 -48.3905 -226.735 582.818
7425 2 -13.4695 -65.8229 -3.42354 -309.781 -717.671 -160.606 99.1861 144.205 111.403 -230.993 615.309
7422 2 -10.7944 -65.5384 -3.01928 -314.468 -761.626 -586.49 73.8135 -28.0577 86.0216 -225.379 439.563