ITEM: TIMESTEP
960000
ITEM: NUMBER OF ATOMS
29952
ITEM: BOX BOUNDS pp pp pp
-2.5615833775063237e+01 3.5601128117061187e+01
-9.3372149261262308e+01 1.0335744359546105e+02
-2.1035324467156940e+01 3.4903177627851115e+01
ITEM: ATOMS id type x y z v_StrAtomXX v_StrAtomYY v_StrAtomZZ v_StrAtomXY v_StrAtomXZ v_StrAtomYZ c_PEAtom v_VMS
7478 1 -10.6754 -69.7534 -15.2708 325.855 305.059 1969.36 -84.7199 109.505 131.57 -738.012 1686.76
4896 2 -16.0771 -71.0213 -18.0127 -385.605 100.948 -507.004 -26.4067 21.2312 9.58919 -164.293 560.588
7392 2 -11.987 -70.6107 -15.3042 276.875 -621.328 -904.751 -139.351 -18.8867 95.833 -272.676 1108.4
4982 1 -15.8945 -69.7715 -17.1562 916.205 671.943 1408.31 176.962 -41.8287 -52.2978 -815.122 727.62
4812 2 -16.7385 -69.6815 -15.7366 -357.747 -397.269 -843.356 -110.723 -122.165 -3.62385 -263.254 547.519
7396 1 -13.2582 -69.6482 -15.4765 402.705 352.333 1987.98 147.636 -14.6571 30.2057 -743.067 1632.25
7481 2 -14.33 -69.6009 -16.6824 1.64313 -223.355 -610.201 -256.692 359.407 -240.274 -273.354 1022.6
7399 2 -13.8986 -68.8773 -14.2329 -669.785 -229.524 -644.254 -263.056 -164.222 296.766 -269.547 857.877
7308 2 -10.2863 -68.8474 -14.0095 -628.293 58.9044 -856.242 305.265 90.2753 256.395 -251.648 1087.23
2507 2 -20.5342 -62.7393 -20.0117 -520.268 -328.61 -465.571 152.767 -51.321 -148.367 -279.534 416.166
2412 2 -22.9188 -62.894 -15.7969 -571.903 -217.478 -582.376 108.537 51.9124 169.844 -268.127 509.319
11 2 -24.8103 -63.2146 -19.8843 -505.278 -493.984 -508.643 -34.1335 -5.24713 -217.923 -260.396 382.396
2406 2 -21.0497 -63.4254 -17.5089 -573.77 -532.574 -584.993 -61.3149 -148.222 -39.6964 -267.382 290.174
4897 1 -20.2342 -63.7489 -18.83 524.082 788.739 988.945 -74.1083 205.14 489.873 -785.465 1012.8
4905 2 -18.7033 -63.7315 -18.5014 -490.876 -497.576 -717.892 19.0996 58.8497 -147.889 -271.304 356.592
2403 1 -22.3768 -63.9579 -16.8073 786.107 484.362 992.979 -42.9117 289.473 -50.4775 -787.736 678.838
2409 2 -23.301 -64.3405 -18.0764 -585.936 -475.878 -423.025 34.202 -15.975 2.4463 -272.752 158.165
2401 1 -24.4389 -64.6106 -19.1761 896.037 905.515 701.897 62.0617 84.5534 130.583 -795.645 351.823
2408 2 -21.9795 -65.3481 -16.129 -483.747 -492.067 -779.511 -118.19 -4.09528 -121.583 -265.167 413.991
4985 2 -20.5747 -65.3071 -19.2754 -576.758 -146.061 -542.107 40.824 -96.9762 -75.8503 -269.569 471.433
2407 2 -23.8206 -65.4339 -20.392 -536.561 -668.637 -273.202 -2.15295 -249.553 -37.3724 -271.993 559.124
2416 1 -25.0585 -66.7021 -14.9074 280.539 729.179 1154.62 -160.691 28.3904 17.7182 -752.967 808.682
2402 1 -22.2018 -66.928 -16.1735 605.234 741.733 1319.51 48.4883 79.1687 280.481 -773.322 832.584
2486 1 -20.9381 -66.8665 -19.1439 1159.87 822.24 1067.84 -62.8267 45.7627 -88.176 -782.408 364.475
2410 2 -23.7052 -67.0337 -15.6578 -112.683 -538.115 -612.193 -268.705 -190.494 -130.913 -284.418 771.285
2316 2 -21.6842 -67.1952 -17.7268 -431.649 -532.283 -119.292 59.5841 -308.535 -198.515 -264.595 744.033
4912 1 -19.4885 -67.4516 -14.7204 480.804 867.864 1282.83 279.68 172.103 -0.047159 -737.058 897.856
2494 2 -21.9306 -67.081 -20.3985 58.3854 -492.504 -128.413 -137.495 571.072 -168.464 -264.092 1164.34
4904 2 -18.326 -67.5311 -16.0706 -51.2896 -643.615 -259.932 -275.058 90.4802 -68.3766 -306.562 732.362
4901 2 -20.9577 -67.5862 -15.2954 256.662 -482.892 -569.822 -176.232 205.025 -155.119 -284.758 954.07
2400 2 -19.4135 -67.5578 -18.6756 111.829 -391.907 -197.032 -254.568 534.897 -175.628 -267.892 1157.09
4900 1 -18.0746 -67.4758 -17.7632 940.666 715.884 1071.25 170.338 15.3544 479.139 -772.152 934.561
4906 2 -18.3977 -68.4395 -14.025 4.68141 -549.235 -895.143 -185.421 105.387 -24.473 -267.474 869.678
7394 1 -11.8443 -66.8971 -15.7433 861.904 303.276 1360.27 30.3234 143.786 377.068 -778.549 1153.32
7401 2 -13.8107 -64.9969 -19.0038 -45.5272 -614.44 -282.455 93.607 320.574 14.4652 -276.027 761.724
4908 2 -16.8908 -63.6939 -16.6356 -469.543 -142.013 -348.414 54.4228 -83.1476 179.618 -265.39 456.825
5003 2 -14.235 -63.1594 -20.5663 -376.018 -420.558 -690.271 35.764 -78.881 -128.288 -267.705 398.27
7404 2 -12.2969 -63.619 -17.1193 -320.949 -397.551 -163.316 95.023 108.786 241.861 -269.927 529.973
4902 2 -16.2806 -64.1583 -19.2791 -598.439 -508.988 -480.647 -2.64939 -78.4608 -104.938 -279.223 250.729
4899 1 -17.2878 -64.3236 -18.0467 468.359 939.826 1214.16 -111.368 159.316 40.4016 -784.074 738.327
7393 1 -14.9813 -64.5244 -20.0501 712.492 895.327 830.416 52.6993 210.331 316.499 -769.661 683.621
7398 2 -11.2075 -65.0729 -19.164 -349.883 -710.806 -574.741 -155.759 -124.197 -39.5366 -268.801 472.671
7395 1 -12.4404 -64.8989 -18.1686 686.461 1104.03 1081.92 -30.2984 24.9052 378.464 -787.536 774.558
4903 2 -17.5113 -65.9775 -17.8934 -393.34 -47.0346 -728.35 196.546 -72.9583 -150.379 -264.033 740.187
7400 2 -12.2612 -66.1237 -17.0369 -444.595 -275.812 -551.263 -91.84 229.508 -395.199 -263.193 842.462
7402 2 -13.0429 -66.7455 -14.7615 -7.64504 -642.038 -1072.09 150.99 37.8996 -41.6555 -261.332 968.571
7397 2 -15.8961 -67.5216 -14.5275 185.838 -443.437 -503.114 338.754 186.334 44.1111 -277.247 944.119
7493 2 -10.6578 -62.8481 -15.0379 -431.424 -443.962 -337.297 -12.1713 318.102 -39.909 -255.682 564.789
4898 1 -17.1997 -68.4017 -15.0133 145.345 914.728 1264.29 476.737 260.697 -6.9316 -741.825 1367.1
7505 2 -10.1445 -62.6687 -7.40043 -520.727 -817.52 -448.567 -53.9802 65.0833 -36.0356 -238.681 374.239
325 1 -24.8621 -44.1973 1.58135 960.142 913.831 977.665 -29.1866 24.5543 -86.9908 -829.836 174.155
27654 2 -25.748 -49.0945 -19.0941 -206.45 -622.704 -541.245 -53.9819 -83.967 68.9126 -248.954 436.046
7408 1 -14.3585 -67.3559 -13.9697 1025.33 691.396 1023.09 171.941 165.449 -200.622 -786.486 634.294
2506 2 -18.2896 -61.9534 -15.2338 -453.101 -530.223 -508.095 -9.25007 -132.383 93.3468 -264.943 289.316
2501 2 -20.8675 -61.7179 -14.6656 -263.647 -460.422 -675.756 20.3132 33.0811 66.7649 -261.324 381.255
2 1 -22.4028 -61.4763 -15.1447 989.634 763.123 1103.2 -34.0706 101.069 -77.4481 -802.016 376.893
1 1 -24.1782 -59.3723 -19.6107 937.2 829.201 1026.28 75.2319 -100.788 96.0781 -804.671 323.058
2497 1 -19.5434 -59.1416 -19.244 909.003 575.271 1204.09 -54.3779 30.5158 -6.92923 -793.423 555.646
8 2 -22.3046 -60.4113 -16.3554 -558.959 -522.328 -398.867 50.5976 -48.3535 -17.4444 -267.12 191.61
2503 2 -19.882 -60.1914 -20.4151 -410.621 -208.379 -562.926 -33.6209 -66.5071 76.1483 -282.331 359.106
7 2 -24.0857 -60.8065 -20.3779 -385.667 -353.342 -504.889 6.94487 103.356 124.877 -268.439 313.189
3 1 -22.0158 -59.1862 -17.2883 821.373 731.583 693.895 -58.4765 116.369 -45.8462 -813.448 264.681
6 2 -20.5956 -59.2888 -17.9849 -540.505 -488.948 -350.252 0.88505 -279.904 103.828 -257.479 544.452
9 2 -22.983 -59.1314 -18.57 -573.464 -476.84 -387.333 22.6347 70.5425 14.9164 -261.186 207.676
107 2 -24.1699 -58.1794 -20.6971 -439.455 -324.699 -471.734 -45.175 -29.3515 -174.794 -266.206 343.92
2603 2 -19.6902 -57.6363 -19.7285 -522.226 -442.054 -700.273 -55.784 28.6776 17.2574 -262.631 255.145
12 2 -22.1679 -57.9055 -16.3639 -574.04 -636.126 -569.769 22.9539 -42.7315 -38.6602 -259.101 125.222
2597 2 -20.7365 -57.1036 -14.3903 -450.034 -401.056 -670.694 -21.3328 -19.1919 63.8941 -259.04 276.793
98 1 -22.2326 -57.0539 -15.0419 903.365 546.365 820.122 -42.8771 203.746 -28.1653 -821.409 486.923
2596 1 -19.5846 -56.3747 -20.6954 575.176 567.517 819.48 66.4417 54.9357 -151.756 -812.63 391.153
2602 2 -18.149 -57.5784 -14.8451 -467.559 -536.007 -524.32 50.267 -177.336 -21.2718 -258.857 327.572
2505 2 -18.0634 -59.4906 -18.6715 -220.162 -392.138 -510.516 -21.9951 127.081 -1.77161 -271.598 337.427
2512 1 -19.4078 -61.9577 -14.0919 739.189 819.838 1036.62 69.0313 88.4415 -63.7159 -814.523 347.739
2500 1 -19.9173 -61.6496 -21.017 860.524 904.971 866.441 -274.016 -152.88 -89.7755 -772.388 566.831
330 2 -20.9111 -44.4232 1.84816 -518.787 -621.991 -473.21 80.3385 -150.039 -49.9066 -253.637 334.369
4994 1 -11.9865 -62.5521 -15.9588 801.567 832.405 1202.82 -92.095 103.561 -49.6291 -812.252 463.239
5002 2 -13.1526 -62.4299 -14.8762 -466.216 -497.73 -357.649 -61.8083 -208.769 145.326 -256.896 470.93
4997 2 -15.7506 -62.2263 -14.8013 -410.087 -555.963 -452.124 -41.6821 83.5665 -111.464 -263.076 283.46
2498 1 -16.8745 -62.1842 -15.895 739.064 1079.96 900.091 -42.6449 41.6332 -130.001 -797.054 385.489
5000 2 -11.8999 -61.0616 -16.6336 -504.774 -119.979 -579.384 -31.9088 90.8106 -107.256 -257.513 494.62
2504 2 -16.6746 -61.1035 -17.1373 -491.004 -212.879 -213.177 18.4871 -18.1094 -218.554 -268.056 471.78
4993 1 -13.8509 -59.2818 -19.3905 832.051 573.94 844.249 -137.349 -159.563 -16.1616 -798.646 451.307
4995 1 -11.8504 -59.5074 -17.04 818.296 852.516 843.034 -199.038 -115.48 17.0292 -812.673 400.826
2499 1 -16.6841 -59.6682 -17.8778 810.279 810.711 954.748 17.5855 82.2287 -14.09 -805.877 206.439
2502 2 -15.3697 -59.4522 -18.7667 -177.018 -440.015 -656.177 119.226 -145.373 -71.5983 -259.776 542.372
4999 2 -13.5888 -60.6709 -20.1512 -442.888 -425.825 -517.96 115.892 62.65 108.267 -270.139 307.313
5001 2 -12.8663 -59.1613 -18.1878 -593.102 -541.769 -726.157 17.8244 -51.4198 -97.5493 -265.922 254.168
2508 2 -16.592 -58.5422 -16.7313 -564.231 -387.729 -607.725 43.3209 -4.03946 42.2619 -261.451 227.506
5004 2 -12.3113 -58.5476 -15.7861 -544.624 -319.766 -506.592 -8.20008 -81.3232 163.757 -251.959 379.404
5099 2 -13.8801 -58.115 -20.4235 -439.083 -269.833 -633.924 -36.5034 46.8116 -19.5772 -269.305 333.626
2594 1 -16.7651 -57.4667 -15.604 912.806 1004.49 897.464 -85.0388 152.993 -249.005 -821.595 536.632
5090 1 -12.0611 -57.278 -14.8709 1050.37 928.269 903.242 -48.5104 80.768 -278.036 -822.714 526.433
5093 2 -15.6372 -57.7266 -14.4229 -318.104 -590.212 -218.278 36.3159 267.964 -32.4706 -242.136 577.673
5221 1 -14.7471 -49.5623 2.57893 903.626 1181.73 872.278 24.962 72.111 -171.575 -844.16 439.121
4990 2 -16.8086 -68.4297 -17.7811 61.4472 -445.472 -604.04 -313.003 291.462 -233.986 -259.788 1037.06
5320 1 -14.615 -47.1327 0.588206 786.665 1132.35 829.294 37.0674 -51.0044 -35.0676 -846.057 349.563
196 1 -24.4394 -52.2544 -20.8627 919.348 902.337 1215.33 32.5832 5.00442 137.24 -824.027 390.758
2599 2 -20.002 -55.1324 -19.8599 -615.003 -722.363 -610.048 81.9639 28.4672 5.46754 -254.54 186.434
103 2 -24.7314 -55.6306 -20.4064 -568.512 -276.204 -365.069 -0.574155 154.762 136.231 -256.022 441.471
104 2 -22.6512 -55.621 -15.5549 -514.673 -538.854 -496.735 5.56981 3.74303 -111.297 -251.936 196.562
105 2 -23.5208 -55.0087 -18.0193 -369.985 -605.047 -323.668 41.1276 150.458 116.768 -256.202 426.824
97 1 -24.6742 -54.7166 -19.0535 830.508 943.939 869.526 114.648 111.347 89.2061 -831.612 332.36
102 2 -20.9361 -54.7894 -17.437 -431.118 -542.048 -499.355 77.7001 -125.916 -2.50235 -260.278 274.022
2593 1 -19.7632 -54.4319 -18.4472 798.32 808.939 954.64 -40.9072 165.198 -99.1709 -821.161 373.208
99 1 -22.4179 -54.6702 -16.8469 1003.66 740.77 1088.57 59.9316 48.4847 -74.5397 -816.924 364.882
203 2 -24.4681 -53.1849 -19.5473 -626.911 -337.896 -512.173 -21.099 -49.7147 -137.046 -243.019 358.648
2699 2 -19.7399 -52.8754 -18.7942 -483.289 -478.905 -403.77 14.4271 -39.3983 -242.985 -247.363 434.051
108 2 -22.5936 -53.1273 -16.4759 -598.255 -543.331 -688.814 -24.5951 17.3628 29.0939 -253.358 146.458
2692 1 -19.5263 -51.8977 -20.1063 913.092 639.182 1204.34 -34.997 -87.5232 25.5811 -829.424 517.921
194 1 -22.2703 -51.7876 -15.7703 1046.34 550.332 1263.47 17.5945 25.6235 -212.11 -832.554 733.989
2693 2 -20.7777 -51.7779 -15.095 -358.488 -421.516 -650.958 60.7543 58.9707 120.629 -253.371 369.104
2704 1 -19.3268 -51.7418 -14.5099 769.977 850.386 1057.02 -55.2838 -8.48124 -182.155 -836.02 417.976
2698 2 -18.2076 -51.5689 -15.6862 -336.598 -483.704 -508.988 126.074 -168.662 -13.7114 -249.143 399.483
2601 2 -18.345 -54.9137 -17.8552 -198.077 -455.889 -518.776 -12.2883 118.028 76.0385 -256.679 382.394
202 2 -23.4159 -51.5423 -14.6615 -369.005 -464.091 -417.704 70.2767 -254.354 -97.9489 -245.784 494.438
199 2 -24.184 -50.6896 -20.3821 -569.912 -335.402 -524.216 -5.55029 -1.82493 147.118 -250.748 333.768
200 2 -22.2166 -50.5737 -16.9033 -533.908 -307.049 -391.317 21.0966 -59.9142 -221.772 -245.705 446.208
2782 2 -18.0255 -52.074 -20.6969 -313.764 -482.955 -594.741 2.95342 -169.671 -1.29545 -252.545 382.663
2695 2 -19.7134 -50.4281 -19.5696 -515.71 -371.915 -627.758 80.7852 52.1078 128.518 -246.419 355.835
7486 2 -11.9215 -68.5455 -15.9419 39.3715 -280.631 -1169.56 -45.4577 -57.439 -211.933 -282.387 1152.34
5188 1 -14.1118 -51.9977 -20.9518 751.303 406.427 1178.89 51.6901 -37.8604 -109.069 -823.781 705.149
2600 2 -16.5972 -55.936 -16.242 -517.492 30.0729 -473.746 58.7473 -38.5627 -127.976 -256.009 584.582
5096 2 -12.3668 -55.8988 -15.7123 -576.108 -185.192 -368.764 7.67014 1.18076 -57.4635 -256.943 353.326
5095 2 -13.597 -55.5539 -20.0085 -407.482 -390.723 -410.367 -12.6483 -75.8853 161.268 -268.473 310.025
2598 2 -15.6891 -54.819 -18.411 -291.358 -606.704 -643.528 92.2014 -122.066 -16.5518 -256.214 428.296
5097 2 -13.2507 -54.4922 -17.6785 -504.922 -573.802 -692.094 6.55916 -12.2419 18.5345 -260.093 168.804
2595 1 -16.7986 -54.7613 -17.3142 831.407 972.804 1074.85 51.2111 207.648 -100.853 -824.499 461.055
5091 1 -12.1646 -54.5433 -16.5462 1028.65 769.615 698.404 -5.34505 -91.9947 -170.642 -819.81 451.053
5089 1 -14.1866 -54.4781 -18.9487 991.038 833.162 886.381 -155.786 -144.915 -150.297 -809.995 472.157
2604 2 -16.6095 -53.1826 -16.8419 -571.183 -149.152 -713.779 124.282 57.2751 50.7576 -241.624 567.919
5100 2 -12.3108 -53.2018 -15.7151 -631.888 -394.898 -640.363 -90.6098 -27.4877 69.2739 -256.144 315.497
5195 2 -14.2221 -53.0753 -19.7491 -566.987 -236.582 -497.303 75.3126 -25.7115 -124.4 -255.34 395.506
5186 1 -12.0738 -51.6815 -15.2943 687.681 773.512 1171.86 77.185 144.092 -140.317 -817.453 582.64
2690 1 -16.7545 -51.6693 -16.3516 1057.16 546.688 944.213 -83.9262 89.0845 119.735 -834.162 551.028
5189 2 -15.6089 -51.4762 -15.2012 -208.669 -615.759 -332.424 -52.8591 203.108 -0.377501 -253.949 512.639
5094 2 -10.6591 -54.5145 -17.1717 -344.393 -510.211 -387.113 49.6589 -118.393 61.7713 -260.867 288.328
7685 2 -10.5553 -51.5786 -14.7786 -178.938 -460.921 -656.86 -109.871 82.7705 21.8298 -254.038 480.994
2696 2 -16.5665 -50.7072 -17.5453 -547.428 -743.369 -634.849 -47.0275 39.1148 69.707 -256.2 233.897
5191 2 -13.8697 -50.562 -20.4505 -535.729 -609.753 -718.66 -104.918 -75.6479 -37.8012 -256.403 282.631
5192 2 -12.1402 -50.7215 -16.641 -569.484 -264.651 -317.793 10.3744 -60.3891 -168.286 -253.615 419.251
5194 2 -13.1313 -51.2844 -14.2127 -385.676 -477.925 -533.069 85.0711 -60.6633 -53.3951 -263.732 240.712
299 2 -24.2347 -48.0943 -20.9785 -658.999 -459.429 -432.915 41.661 -63.0596 -138.832 -244.853 347.538
2689 1 -19.5121 -48.8617 -19.0885 742.192 902.395 967.027 73.4019 44.9852 71.2894 -834.442 278.707
198 2 -20.532 -48.7235 -17.8984 -143.239 -584.554 -697.219 116.037 -80.5111 -65.0078 -242.704 574.187
193 1 -24.2798 -49.244 -19.7993 1141.95 826.063 936.625 54.9635 32.6758 -139.471 -834.326 384.328
201 2 -23.0514 -48.9665 -18.7888 -203.996 -580.508 -330.487 0.0641877 151.954 62.1104 -253.511 437.011
195 1 -22.0986 -49.0869 -17.4705 1082.5 1018.91 914.839 60.0184 70.3926 -72.0636 -834.057 250.486
204 2 -22.4505 -48.0908 -16.2828 -595.299 -607.079 -344.064 8.83465 54.2781 138.959 -248.131 364.992
2795 2 -19.9438 -47.8465 -20.2085 -561.38 -330.157 -583.088 -81.1718 55.6817 -59.86 -249.502 314.28
290 1 -22.3066 -47.1391 -14.9964 735.972 1001.89 909.788 -78.8285 281.111 -183.706 -835.57 641.606
295 2 -24.2223 -45.5719 -20.4253 -566.193 -441.301 -389.789 18.5346 149.962 112.11 -246.705 361.784
2791 2 -19.7566 -45.2648 -19.8762 -528.882 -333.093 -178.01 62.461 95.3167 245.587 -252.618 559.148
296 2 -22.3958 -45.654 -15.6776 -503.712 -419.685 -503.61 -7.17542 41.8612 -147.001 -245.504 278.013
294 2 -20.8305 -44.7057 -17.4856 -780.426 -635.564 -565.083 -31.4916 -27.6331 161.085 -246.881 345.36
297 2 -23.3012 -44.6657 -18.0006 -381.774 -586.764 -112.432 -30.3335 229.221 -0.312104 -239.569 574.601
291 1 -22.2327 -44.5226 -16.7783 878.56 889.318 936.079 -24.0533 120.292 -41.8203 -847.194 230.647
2785 1 -19.7132 -44.3703 -18.5136 710.475 1026.51 899.637 -87.7718 101.093 48.2593 -830.511 369.642
289 1 -24.3785 -44.5241 -19.2628 1086.54 1016.13 923.971 94.1595 107.414 -38.2062 -847.907 292.457
2793 2 -18.2918 -44.5964 -17.8307 -394.235 -517.057 -557.379 -88.9619 78.8678 -2.46419 -253.47 253.149
2789 2 -20.8205 -47.3281 -14.3175 -494.248 -394.373 -564.077 -29.7937 156.552 68.4313 -253.261 334.756
2794 2 -18.2829 -47.3037 -15.0184 -146.959 -526.178 -471.569 -9.78525 -297.34 16.4466 -243.335 626.429
2697 2 -17.9756 -48.7413 -18.6659 -371.882 -469.686 -539.322 -121.755 82.7806 -27.2059 -254.752 297.45
9893 2 -10.2574 -66.7741 -15.2149 251.29 -357.367 -736.687 -223.422 228.21 -10.7574 -265.405 1025.46
2691 1 -16.594 -49.184 -17.9626 827.723 738.441 727.098 -63.7273 79.4621 -83.4142 -822.581 247.21
2694 2 -15.3535 -48.9293 -18.9207 -566.99 -526.964 -537.893 14.322 -42.6533 106.913 -255.927 204.08
5187 1 -11.9476 -49.2752 -17.2954 1086.83 863.482 770.214 -8.98392 96.3481 -24.6495 -827.16 330.652
5185 1 -14.0093 -49.128 -19.7474 919.659 707.745 928.052 -119.47 -6.73643 -6.65422 -821.808 299.741
5286 2 -10.6033 -44.6437 -17.4888 -258.963 -480.459 -466.545 136.413 -152.172 -65.6026 -254.506 429.392
5193 2 -12.8265 -49.1303 -18.6407 -472.142 -540.484 -335.624 -12.7004 93.9506 -58.1667 -252.93 264.106
5196 2 -12.2136 -48.1402 -16.2335 -599.163 -276.406 -389.039 52.6775 102.853 147.185 -258.204 430.762
2700 2 -16.4797 -48.3179 -16.6684 -632.201 -465.635 -666.33 24.6014 -33.2996 30.6248 -256.802 206.276
2786 1 -16.7421 -47.1717 -15.5938 1156.86 866.041 874.736 44.1953 52.7811 -135.066 -824.664 388.676
5282 1 -12.0148 -46.9976 -15.0628 948.031 1057.51 1024.23 87.0324 55.5538 -1.53251 -818.766 203.568
2792 2 -16.5705 -45.744 -16.2919 -577.762 -310.781 -481.785 -12.3083 -26.2403 -66.1194 -257.531 265.522
5288 2 -12.2407 -45.5434 -15.7101 -575.486 -336.221 -256.579 53.4768 -15.0397 -165.818 -255.535 417.601
5287 2 -14.0026 -45.4887 -20.5475 -527.106 -507.665 -284.891 -36.7271 -24.2328 133.105 -255.642 336.595
5289 2 -13.139 -44.6751 -18.1485 -326.908 -617.276 -397.561 -8.53721 111.756 -55.0754 -260.248 339.965
2790 2 -15.7209 -44.7955 -18.5663 -253.647 -531.401 -369.815 17.7702 -220.292 -29.435 -260.559 455.531
2787 1 -16.7576 -44.5724 -17.3695 815.627 1065.12 980.472 97.7187 59.8855 54.4705 -824.647 310.804
5283 1 -12.1035 -44.5189 -16.9775 768.288 985.071 991.307 -206.386 26.1329 -9.12363 -821.543 422.457
5281 1 -14.2959 -44.4929 -19.2848 1068.62 1070.8 867.579 21.4839 -10.8237 65.0169 -814.351 235.116
5285 2 -15.7381 -47.3069 -14.3139 -219.852 -509.003 -234.976 12.2002 242.034 78.5334 -253.741 523.597
5291 2 -13.9179 -47.9814 -20.8439 -570.258 -547.457 -473.472 17.3781 55.717 -99.6676 -254.192 218.405
7781 2 -10.4746 -46.9904 -14.5616 61.2038 -546.926 -524.193 19.2644 92.0925 43.8116 -251.598 623.561
5190 2 -10.4044 -49.0599 -17.7931 -308.571 -460.898 -298.829 129.057 -280.893 -92.6585 -245.08 580.697
4913 2 -21.2316 -67.7988 -7.32947 41.0624 -635.893 -162.797 -11.0586 359.881 -10.1686 -236.189 866.628
4915 2 -19.2916 -66.0807 -13.9158 -513.954 -224.241 -225.827 111.77 -58.8343 384.929 -271.815 758.848
2424 2 -21.5901 -63.8205 -9.65931 -548.585 -182.798 -338.81 0.996848 -113.639 339.79 -255.7 697.273
14 1 -21.8457 -62.6781 -8.49493 1302.89 864.518 1329.98 3.33203 239.501 -69.7518 -831.096 625.693
22 2 -23.3774 -62.8808 -7.91068 -290.117 -453.277 -482.482 71.7254 -265.739 -42.6782 -249.32 514.77
23 2 -24.2191 -63.359 -12.8754 -546.69 -355.167 -646.317 -155.539 -27.6008 78.0185 -255.929 398.511
2519 2 -19.3843 -63.4883 -13.5161 -588.825 -234.438 -613.058 -17.1259 14.3528 -55.1859 -254.837 381.313
2413 1 -24.377 -64.8276 -12.3286 969.501 766.411 1005.18 163.593 28.6728 6.52665 -813.321 364.207
4909 1 -19.3189 -64.888 -12.7708 1090.68 765.622 986.555 -113.277 134.663 -67.1175 -812.897 434.822
2415 1 -21.6606 -65.1274 -10.604 1126.88 1044.06 691.277 -7.34622 254.391 121.638 -814.833 631.842
2421 2 -23.1285 -65.1194 -11.3712 -327.624 -603.358 -239.154 -11.3575 273.539 86.8224 -253.87 596.424
2418 2 -20.6113 -65.0091 -11.8438 -482.777 -546.404 -245.703 2.45367 -218.437 60.5687 -258.052 479.066
2419 2 -24.6362 -65.7914 -13.6686 -393.863 -391.753 -46.6294 62.6402 262.121 185.827 -274.241 664.328
2328 2 -21.5129 -66.4168 -9.70091 -672.833 -510.057 -465.409 18.2536 -156.526 -222.514 -259.133 508.719
2414 1 -22.0096 -66.6606 -8.22617 766.804 1177.99 713.836 41.7089 16.3875 215.756 -796.67 582.528
2422 2 -23.5898 -66.5129 -8.1865 159.804 -330.701 -645.295 -3.56958 -143.43 -17.022 -269.307 745.988
4918 2 -18.6128 -66.752 -7.38943 -202.457 -430.459 -657.887 153.566 -224.138 -6.11717 -261.805 614.114
2428 1 -25.0859 -66.6718 -7.4704 831.227 1154.21 883.629 -18.0516 -124.479 -185.707 -798.854 490.984
2420 2 -21.0431 -65.6197 -7.35907 -113.337 -817.836 -571.943 -58.3777 162.796 -49.0022 -225.881 693.171
4917 2 -18.0001 -64.9564 -11.7794 -234.325 -522.655 -170.503 51.8056 275.007 166.974 -258.811 651.298
7414 2 -13.5589 -66.8272 -7.81941 107.107 -365.522 -821.361 -36.5967 -47.5768 -43.0199 -264.04 814.231
4910 1 -17.1941 -66.6725 -8.0494 399.886 1069.77 939.768 -50.2678 172.413 78.3669 -804.377 702.669
7411 2 -14.3647 -66.4199 -12.6887 -741.919 -114.718 -472.993 -120.095 -24.2409 345.601 -254.202 836.889
4916 2 -16.0892 -65.5626 -7.56006 -107.92 -887.19 -585.23 -35.0902 -78.6507 48.6982 -234.217 701.782
4914 2 -15.5493 -64.7742 -10.9202 -304.135 -498.919 -514.885 12.0374 -150.75 -17.552 -268.504 332.929
7405 1 -14.3398 -64.9572 -11.9331 871.085 957.7 977.406 -130.871 39.2601 -147.457 -816.69 361.71
5015 2 -14.5096 -63.8491 -13.1325 -581.32 -195.26 -377.818 78.6052 -11.1152 -151.809 -253.955 447.143
7416 2 -11.3079 -63.6944 -9.62115 -541.525 -277.721 -510.631 121.725 73.9181 237.664 -241.825 541.01
5014 2 -12.859 -62.7425 -7.72487 -10.6314 -594.009 -484.5 178.465 -165.345 -4.76389 -244.529 682.693
2510 1 -17.1049 -62.698 -8.0739 878.521 968.029 1030.69 -73.496 132.953 -114.263 -848.365 354.893
4920 2 -17.3986 -63.5941 -9.4235 -539.56 -295.533 -94.9208 22.4296 -39.6892 323.534 -250.587 684.841
4911 1 -17.0634 -64.8453 -10.4577 901.647 1362.12 954.023 120.683 80.8484 82.1558 -810.117 523.653
7407 1 -11.4858 -65.0028 -10.5392 702.135 1165.28 755.815 -92.5528 150.892 61.1442 -842.076 545.655
7413 2 -12.8434 -64.8954 -11.3967 -265.692 -671.261 -575.181 -8.03581 -58.3659 37.2963 -250.695 386.442
4824 2 -17.4329 -66.2566 -9.57266 -515.621 -118.893 -374.319 -2.22133 -98.6729 -375.669 -248.355 757.567
7320 2 -11.6983 -66.323 -9.65671 -570.906 -420.708 -441.28 74.0198 -93.7931 -208.355 -248.492 439.268
7406 1 -11.9582 -66.7428 -8.12568 745.71 1182.11 1316.01 -203.987 -94.2303 -30.4819 -802.532 648.895
7409 2 -16.1138 -67.7094 -7.49 -213.45 -859 -392.206 62.7432 102.251 -25.0223 -238.674 615.099
5006 1 -11.373 -62.5571 -8.41949 1073.26 1124.38 1057.4 -25.2313 -130.318 -91.5343 -845.202 285.778
9905 2 -10.8051 -67.705 -7.33766 111.1 -740.695 -438.921 -3.23766 407.404 -46.2802 -223.572 1031.49
5226 2 -10.6413 -49.8731 2.461 -470.434 -677.931 -365.653 10.5096 -210.473 67.9839 -238.41 472.091
5009 2 -15.6264 -62.6957 -7.6026 -319.542 -702.48 -472.731 62.2408 83.3412 129.725 -243.181 440.898
7412 2 -11.0989 -65.5649 -7.32321 -8.23552 -847.962 -616.597 171.871 190.71 153.175 -225.674 912.417
106 2 -23.3137 -57.4455 -13.9918 -432.574 -632.817 -474.717 -25.2451 -193.435 192.843 -253.889 509.08
10 2 -23.4092 -61.1541 -13.9432 -153.099 -536.985 -366.593 105.426 -324.762 -63.7541 -254.483 687.706
16 1 -24.7663 -61.8646 -13.245 1213.08 825.96 853.069 8.80272 144.834 -200.733 -810.701 569.336
20 2 -21.7213 -61.2362 -9.16801 -658.019 -250.982 -602.769 39.8654 -68.6603 37.972 -256.073 411.678
21 2 -23.4936 -59.7897 -10.2945 -342.523 -634.28 -516.891 2.51879 -11.6194 121.154 -248.598 330.323
15 1 -21.9056 -59.8865 -9.96259 1012.95 887.505 836.138 7.9844 158.25 -63.0827 -830.56 334.779
2509 1 -19.5716 -59.7179 -11.892 969.765 994.573 750.4 -23.8584 169.58 -68.4574 -825.543 395.243
13 1 -24.9076 -59.6984 -11.0252 821.155 964.694 819.115 150.903 251.435 -92.4139 -830.941 551.811
2517 2 -18.5939 -59.8636 -10.5908 -262.192 -608.189 -310.509 -110.343 134.866 -64.27 -242.828 456.964
18 2 -21.0246 -59.9729 -11.2962 -556.535 -628.843 -414.109 27.0696 -222.352 33.2103 -249.553 435.477
2515 2 -19.1713 -60.8921 -12.9227 -554.594 -296.017 -440.139 -72.2101 -71.4872 129.928 -260.641 363.297
24 2 -21.5787 -58.4391 -9.30956 -633.038 -277.902 -516.818 10.3696 -103.344 167.002 -252.436 463.018
2615 2 -19.402 -58.2922 -12.5854 -573.275 -359.612 -388.52 61.5529 -77.2135 -41.344 -256.559 273.296
119 2 -24.8381 -58.4092 -11.9671 -566.065 -368.405 -378.721 16.5335 -129.723 -76.3306 -254.713 325.454
2608 1 -19.3026 -57.223 -13.794 815.242 775.148 1063.45 71.6072 27.532 -76.6195 -823.04 329.298
112 1 -24.6986 -57.3013 -13.1376 1072.69 955.074 1029.66 -2.06577 184.455 -143.784 -829.316 418.008
110 1 -21.9458 -56.9668 -8.82209 914.884 873.014 1063.67 -95.5733 73.7191 -120.852 -828.923 342.99
124 1 -24.6878 -57.0714 -7.52846 658.116 1101.37 1094.37 127.629 165.148 -118.387 -833.903 605.108
118 2 -23.5449 -56.8498 -8.63037 -303.93 -544.542 -558.536 38.3522 -36.2966 -2.43312 -249.983 264.272
2609 2 -21.0789 -56.5888 -7.55646 -305.409 -503.891 -555.362 3.70555 75.6178 -28.9287 -254.856 268.266
2614 2 -18.4381 -56.8133 -7.72975 -312.525 -683.685 -617.855 2.49126 -63.9228 107.233 -245.74 405.504
19 2 -25.1344 -60.9886 -12.0155 -679.043 -333.104 -420.118 48.5362 94.1174 192.552 -258.256 491.95
5008 1 -14.4322 -62.4035 -13.8702 994.928 1077.85 914.995 -25.9523 -47.1655 41.4611 -816.249 183.696
5011 2 -14.5088 -61.2144 -12.758 -523.799 -138.901 -211.961 -95.6184 -215.577 303.927 -254.878 754.538
2516 2 -17.4061 -61.1882 -8.58258 -681.327 -432.409 -603.509 23.1689 6.1913 -12.0164 -240.811 225.398
5012 2 -11.3358 -61.0991 -9.1053 -485.349 -245.564 -537.683 -40.4245 51.4475 -87.985 -249.078 329.927
2514 2 -15.9171 -60.3963 -10.5167 -144.814 -503.656 -353.239 -23.601 -205.818 163.092 -252.997 553.145
5013 2 -13.2476 -60.2219 -10.7964 -367.287 -552.969 -592.039 25.4376 93.2712 19.9434 -250.273 269.243
2511 1 -17.2548 -60.0277 -9.6338 1219.47 719.904 940.11 -164.726 72.83 -111.773 -836.795 568.193
5007 1 -11.7594 -59.9697 -10.1764 954.286 776.041 1166.51 -77.0387 3.91152 -183.839 -836.099 483.611
5005 1 -14.6464 -60.141 -11.4983 887.61 998.923 1078 -108.22 -133.041 -89.6075 -826.712 373.857
5010 2 -10.6955 -60.0913 -11.4139 -478.264 -617.459 -460.017 14.2476 -112.146 52.3846 -241.434 262.335
5111 2 -14.833 -58.6274 -12.0929 -573.199 -70.1697 -520.758 66.2979 -10.1736 -47.8504 -254.88 499.775
5016 2 -11.7059 -58.469 -9.70055 -552.713 -378.569 -642.473 84.1656 55.096 56.8337 -249.932 306.697
2520 2 -17.125 -58.5657 -9.04521 -636.913 -411.987 -601.056 54.9697 -106.251 30.1942 -251.242 299.133
5098 2 -13.1235 -57.4043 -13.6731 -245.596 -550.933 -534.652 123.861 -186.238 -9.73952 -252.505 488.761
5104 1 -14.6511 -57.4301 -13.1362 1101.28 845.106 1013.66 -159.662 107.941 -88.8609 -830.803 431.25
2606 1 -17.1465 -57.0194 -8.65925 843.357 854.198 972.837 -55.987 149.775 -71.2414 -835.686 327.728
5102 1 -11.7965 -56.9238 -9.23715 774.694 870.013 902.254 -35.9217 -17.4964 -0.171288 -831.898 134.119
5110 2 -13.2401 -56.734 -8.6228 -503.084 -575.499 -459.847 75.5181 -128.578 23.0482 -249.149 280.256
5105 2 -15.7794 -56.6136 -7.92287 -359.318 -515.074 -511.182 52.4141 54.5569 79.9592 -251.377 244.99
5116 1 -14.2972 -57 -7.41703 843.028 899.994 947.544 -101.992 12.8849 -209.851 -831.044 414.768
7601 2 -10.7696 -56.5888 -8.09221 -576.897 -534.544 -392.349 16.3139 84.3946 58.9068 -256.431 246.194
116 2 -21.658 -55.9537 -10.1066 -590.853 -338.062 -129.111 58.8369 -47.0092 -278.007 -244.217 639.737
2711 2 -19.0557 -53.1344 -13.7265 -566.778 -369.031 -461.554 33.2089 -27.5445 -74.3302 -248.364 226.997
2611 2 -18.8627 -55.7523 -13.1912 -574.192 -220.104 -600.352 53.5891 4.07747 132.804 -243.783 443.735
115 2 -24.776 -55.7939 -12.5814 -586.384 -263.946 -598.133 -70.8963 -103.059 92.7393 -249.102 425.013
208 1 -24.7757 -51.7796 -13.7844 1031.36 958.471 882.868 132.182 35.6102 -119.584 -845.455 340.088
111 1 -21.7246 -54.5132 -10.8666 948.084 990.898 974.104 -105.416 110.249 -282.635 -834.923 557.535
109 1 -24.742 -54.3371 -11.9095 967.342 859.485 1124.17 3.98138 130.866 -66.944 -841.403 343.533
2605 1 -19.2578 -54.2997 -12.6486 982.803 833.886 823.147 -101.865 37.9137 -118.745 -837.629 318.8
114 2 -20.8005 -54.3423 -12.1837 -510.31 -448.145 -323.085 92.3273 -198.92 11.88 -251.357 414.707
117 2 -23.2612 -54.1811 -11.308 -202.845 -511.762 -659.226 -104.346 -31.3179 7.49066 -243.419 445.538
120 2 -21.4483 -53.4486 -9.7386 -782.839 -560.306 -490.538 -51.8446 -114.772 82.2839 -250.003 371.224
215 2 -24.9183 -53.139 -12.9976 -558.344 -422.257 -474.324 0.0804906 -70.4925 -87.1041 -247.199 227.627
214 2 -23.2442 -52.5482 -8.06941 -173.702 -615.298 -435.352 16.2625 -195.884 9.4429 -239.06 513.904
206 1 -21.6967 -52.3507 -8.63724 1159.33 1086.54 682.723 141.436 -26.1357 -195.97 -840.481 612.401
212 2 -21.5676 -50.8306 -9.27372 -595.913 -118.085 -551.494 34.8949 -64.1245 -50.1413 -239.418 482.286
2707 2 -19.1189 -50.6171 -13.4038 -534.99 -537.367 -489.217 21.2777 9.03604 113.294 -251.019 205.716
211 2 -24.8837 -50.5811 -12.7325 -570.114 -390.528 -315.512 -39.9681 -3.60025 233.314 -239.947 468.496
2705 2 -20.6856 -52.352 -7.42853 -572.348 -662.632 -582.493 10.2976 -112.961 67.1555 -250.317 243.857
2613 2 -18.3827 -54.0921 -11.3524 -504.42 -680.005 -518.008 -8.74473 59.5881 -52.6134 -241.507 218.667
7697 2 -10.4797 -52.4914 -7.65571 -366.449 -610.298 -421.011 28.2449 109.073 122.017 -249.888 363.157
5108 2 -11.6367 -55.9894 -10.5383 -589.891 -589.66 -456.743 -3.49761 52.378 -29.9686 -250.457 169.29
2612 2 -17.3905 -55.9554 -9.824 -550.85 -260.747 -694.771 3.64031 -1.83491 -13.0069 -246.436 383.643