ITEM: TIMESTEP
1280000
ITEM: NUMBER OF ATOMS
29952
ITEM: BOX BOUNDS pp pp pp
-2.5615833775063237e+01 3.5601128117061187e+01
-1.0400618130757168e+02 1.1399147564177042e+02
-2.1035324467156940e+01 3.4903177627851115e+01
ITEM: ATOMS id type x y z v_StrAtomXX v_StrAtomYY v_StrAtomZZ v_StrAtomXY v_StrAtomXZ v_StrAtomYZ c_PEAtom v_VMS
7396 1 -13.2792 -70.428 -15.4766 240.548 332.157 1962.84 2.92224 19.7025 152.834 -738.115 1699.46
7481 2 -14.5186 -70.4611 -16.4638 349.866 -234.989 -813.483 -190.335 373.015 -258.022 -268.14 1319.42
4812 2 -16.9643 -70.5844 -15.5807 -356.884 -172.572 -438.711 -136.313 -229.091 173.265 -270.344 599.168
7478 1 -10.7492 -70.6035 -15.1742 492.163 316.325 2032.16 88.628 -64.8824 98.4519 -715.748 1654.86
4982 1 -16.156 -70.6715 -17.0472 1090.88 430.396 1545.68 90.0992 38.5945 -115.228 -810.976 1006.04
7392 2 -12.0667 -71.491 -15.2168 388.674 -478.652 -920.784 -159.373 45.9262 87.7794 -271.189 1198.69
4896 2 -16.1131 -71.8943 -17.9001 -391.855 -20.8465 -588.307 -37.0446 -31.946 -64.7202 -166.564 518.528
4904 2 -18.4684 -68.3847 -15.9022 -60.4543 -465.625 -203.233 -409.316 -35.7069 -153.652 -307.346 839.029
2400 2 -19.6771 -68.3852 -18.3434 183.617 -353.533 -233.637 -254.543 550.849 -172.397 -270.815 1196.81
4901 2 -21.1141 -68.2049 -15.0301 307.133 -591.56 -548.435 -159.306 184.015 -91.111 -282.063 986.599
4912 1 -19.6018 -68.0569 -14.5316 617.132 699.409 1322.05 414.545 124.699 4.85185 -738.658 1003.96
2316 2 -22.0111 -67.954 -17.5149 -448.417 -556.644 92.0711 10.5266 -339.945 -144.791 -260.071 878.777
2494 2 -22.0196 -67.8662 -20.2728 16.0093 -523.261 -46.4013 -154.719 578.816 -200.564 -263.676 1207.74
2410 2 -23.8394 -67.562 -15.3872 -23.5356 -426.634 -572.901 -286.645 -207.402 -32.296 -288.028 788.362
2486 1 -21.126 -67.6786 -18.8914 1157.46 824.368 1254.89 -40.4698 3.24817 -65.6737 -778.606 413.257
2402 1 -22.3416 -67.5717 -15.9239 561.869 684.102 1447.66 118.506 177.053 260.023 -779.626 1015.04
2416 1 -25.278 -67.3427 -14.7265 387.607 979.272 1410.82 -99.2783 -161.066 112.139 -753.63 967.859
4985 2 -20.8143 -66.1004 -18.9932 -620.782 -551.669 -666.881 -115.83 -70.5795 -115.005 -273.898 323.976
2407 2 -23.7667 -66.0278 -20.1601 -443.035 -597.071 -320.083 -155.934 -166.918 60.6071 -267.972 474.694
2408 2 -21.8979 -66.0426 -15.9619 -505.26 -556.905 -808.768 -17.42 -165.648 -134.58 -263.187 465.482
2401 1 -24.384 -65.0864 -19.0264 904.699 968.626 817.641 176.301 -32.3142 91.0624 -791.674 372.138
2409 2 -23.3915 -65.1016 -17.732 -495.462 -545.716 -392.963 -4.207 65.7925 21.9534 -267.116 180.741
4897 1 -20.304 -64.6417 -18.8206 640.365 566.635 956.089 -1.87079 245.018 373.078 -793.352 852.097
2403 1 -22.2642 -64.6546 -16.6548 859.584 601.32 914.707 229.441 244.338 -93.3143 -787.308 668.678
4905 2 -18.7244 -64.6138 -18.5659 -177.899 -501.083 -643.458 -9.31798 84.773 -88.8109 -265.207 464.988
2406 2 -21.0339 -64.0641 -17.5206 -414.343 -484.389 -467.277 -68.9779 -154.66 -110.751 -268.819 356.134
11 2 -24.3578 -63.6525 -19.7037 -431.085 -587.38 -448.074 62.2462 25.6098 -158.915 -269.969 333.789
2507 2 -20.5257 -63.7927 -20.1455 -544.006 -500.001 -441.008 79.7926 -197.884 -166.354 -260.518 477.082
2412 2 -22.7035 -63.6333 -15.5641 -579.002 -622.405 -511.988 -13.4389 -22.7765 143.472 -269.051 270.434
4906 2 -18.5936 -69.0292 -13.7259 172.711 -454.384 -732.489 -328.315 -42.3215 50.08 -273.603 990.585
4900 1 -18.2057 -68.3054 -17.5743 1007.28 704.19 1043.89 189.261 -42.8775 468.023 -765.124 935.101
4990 2 -17.0538 -69.3974 -17.7263 26.737 -253.239 -649.412 -331.259 281.532 -238.296 -267.838 1040.96
7486 2 -11.9787 -69.487 -15.9612 6.34028 -404.596 -1074.26 -305.306 76.2878 -147.104 -307.224 1120.06
4898 1 -17.3748 -69.2911 -14.7475 395.966 984.213 1373.9 366.444 -10.2637 171.145 -722.339 1103.7
7397 2 -16.0717 -68.3357 -14.5401 279.789 -350.498 -594.517 301.68 108.568 -82.7625 -288.797 969.304
7394 1 -11.9396 -67.8208 -15.837 819.42 262.469 1368.98 -58.5599 -123.39 483.071 -761.6 1293.96
7402 2 -13.3013 -67.4503 -15.002 280.31 -408.021 -761.452 43.8096 -182.265 30.8376 -266.87 974.814
7400 2 -12.1406 -67.0276 -17.1789 -552.779 -193.882 -703.246 -71.2911 190.692 -338.202 -271.995 820.323
4903 2 -17.6775 -66.8207 -17.7951 -391.515 -50.8292 -637.316 163.659 -66.8831 -183.851 -275.582 674.835
7401 2 -13.7481 -65.8103 -18.9679 -321.974 -570.709 -301.725 -15.3654 261.532 -144.069 -273.93 579.213
7395 1 -12.426 -65.7415 -18.0929 727.887 886.165 959.229 -2.99654 -117.052 511.358 -795.544 931.422
7398 2 -11.1813 -65.6504 -19.1261 -426.288 -674.994 -426.16 -102.051 -148.403 -105.34 -265.114 438.737
7393 1 -14.8854 -65.2259 -19.9729 674.459 907.065 856.835 111.316 170.662 344.31 -769.702 724.668
4899 1 -17.2897 -65.2204 -18.0257 640.807 888.98 1080.47 -109.32 264.698 70.3788 -781.892 637.72
4902 2 -16.1779 -65.0519 -19.123 -556.084 -459.13 -674.884 100.647 -91.5143 -219.973 -280.342 485.5
4908 2 -16.887 -64.4842 -16.6661 -429.124 -305.901 -497.385 43.2225 -25.1305 97.0701 -270.903 253.026
7404 2 -12.4179 -64.4358 -17.1021 -431.264 -138.51 -385.645 57.8705 57.3477 192.669 -264.516 453.55
5003 2 -14.1626 -63.8375 -20.4986 -323.519 -310.503 -580.205 39.6075 -120.955 -166.015 -276.098 447.97
7399 2 -13.8626 -69.6112 -14.1795 -308.475 -199.086 -670.338 -314.535 -274.32 280.518 -274.467 970.111
7408 1 -14.5118 -68.1371 -14.0383 837.575 801.136 1173.63 136.562 118.508 -282.503 -769.482 681.183
7493 2 -10.7779 -63.419 -15.2967 -433.721 -400.898 -642.72 30.637 167.315 8.53491 -258.293 372.338
4997 2 -15.9304 -63.2728 -14.5157 -422.833 -606.139 -551.543 95.6769 51.8439 45.7603 -245.12 261.499
2506 2 -18.3345 -62.7881 -15.2115 -568.659 -468.704 -615.36 -72.4958 -148.033 151.257 -253.645 408.637
2501 2 -20.8602 -62.2091 -14.5529 -359.776 -465.107 -695.949 -11.8015 -99.6283 64.8635 -260.584 362.649
2 1 -22.4458 -62.2157 -14.8619 729.058 630.182 933.252 15.0083 235.021 -81.9544 -802.918 508.126
7 2 -24.4625 -61.2634 -20.4587 -465.218 -772.753 -663.178 48.8673 109.385 -24.157 -267.257 343.069
2503 2 -19.8824 -61.3678 -19.7955 -522.001 -476.844 -303.057 -23.9572 -32.9874 181.375 -259.98 379.164
8 2 -22.6405 -61.1754 -16.0688 -589.342 -631.67 -395.038 30.2351 -76.7152 -19.6922 -258.448 263.31
9 2 -23.1121 -60.062 -18.4497 -427.248 -442.912 -395.734 -6.79428 116.109 56.573 -261.288 227.851
2497 1 -19.5426 -60.1955 -18.703 722.845 817.16 1080.26 12.5851 204.45 -92.3952 -812.723 504.395
6 2 -20.6405 -60.189 -17.6067 -273.602 -458.888 -685.968 80.9102 -103.053 -16.6672 -263.45 424.622
1 1 -24.3079 -60.0391 -19.5578 944.148 477.956 872.94 123.861 33.4376 -159.3 -814.972 560.997
3 1 -22.2041 -60.0806 -17.1386 1025.18 697.066 831.436 3.8926 93.5939 -129.268 -813.465 397.592
2603 2 -19.5342 -58.852 -19.5923 -495.959 -395.538 -364.911 2.15277 2.29632 -180.168 -261.435 333.93
107 2 -24.1074 -58.7024 -20.414 -604.191 -533.462 -759.042 -4.27103 -123.962 30.4614 -250.682 298.114
12 2 -22.3691 -58.7386 -16.3157 -637.357 -535.398 -531.184 -55.2085 -142.689 120.391 -254.709 352.916
2597 2 -20.7947 -58.0291 -14.4784 -415.414 -453.118 -695.431 -43.2942 28.2451 81.2527 -255.798 311.602
98 1 -22.3094 -57.856 -14.9794 814.051 681.115 1064.09 -81.5121 26.4856 -52.3628 -820.562 379.067
2596 1 -19.6377 -57.4814 -20.4425 1006.94 778.054 1014.22 -31.9686 27.3575 -151.243 -813.776 357.83
2512 1 -19.4219 -62.6201 -14.0389 762.89 751.871 1024.16 91.1504 109.518 -227.78 -825.27 536.49
10 2 -23.4735 -61.9553 -13.7391 -427.55 -444.149 -796.272 17.743 28.9309 15.7833 -265.281 366.488
2505 2 -18.0335 -60.4926 -18.1698 -124.042 -402.136 -632.686 -26.6942 21.4538 82.7965 -262.756 467.642
2602 2 -18.0936 -58.3984 -14.6735 -264.537 -535.69 -577.819 118.235 -93.4928 -37.2445 -254.039 398.805
4994 1 -12.1899 -63.2467 -16.0129 842.691 678.234 1358.17 -99.6557 -125.061 -53.7729 -814.972 680.392
5002 2 -13.3007 -63.31 -14.8049 -245.417 -386.364 -163.03 -15.776 -303.195 76.6595 -253.439 576.563
2498 1 -16.9199 -63.1383 -15.7999 730.33 727.322 967.426 -107.78 139.038 -87.4727 -817.739 415.615
2504 2 -16.4949 -61.9185 -16.708 -594.231 -433.345 -650.012 37.608 6.95738 -30.4447 -258.013 212.46
5000 2 -12.3064 -61.8152 -16.7626 -469.774 -142.787 -529.371 -13.7236 80.9214 -74.0214 -265.418 408.175
4999 2 -13.5414 -61.3181 -20.0483 -638.8 -570.371 -704.427 60.9234 54.4405 5.5143 -268.156 183.297
2499 1 -16.5888 -60.5217 -17.4736 938.688 628.812 1249.72 42.9162 -17.619 -53.7631 -813.628 551.614
2502 2 -15.3404 -60.3328 -18.5679 -144.46 -367.189 -432.029 94.806 -254.26 -63.5092 -263.791 548.875
4995 1 -11.9383 -60.2887 -17.0736 722.075 918.773 848.873 -90.1184 -83.9068 26.3825 -820.377 278.209
4993 1 -13.9623 -59.9942 -19.3242 1006.67 560.01 907.486 76.3494 -1.55373 -106.672 -803.598 465.483
5001 2 -12.8221 -59.6303 -18.1806 -421.768 -516.601 -615.338 63.1376 38.612 27.8877 -252.648 216.496
2508 2 -16.4629 -59.3916 -16.3459 -560.339 -414.433 -483.458 -16.568 45.5347 221.803 -250.795 413.056
5004 2 -11.9788 -59.2341 -15.8378 -554.932 17.3682 -499.342 26.662 -28.2588 377.061 -248.101 854.316
5099 2 -13.9793 -58.7922 -20.3451 -466.799 -240.35 -561.394 30.5738 -51.8461 -71.6801 -265.342 328.528
2594 1 -16.6574 -58.1533 -15.3166 801.879 979.078 930.769 91.0819 -81.7151 -269.035 -825.54 535.94
5090 1 -11.9438 -57.9159 -14.8144 883.852 1027.3 1206.5 -94.5666 119.292 -62.858 -823.664 399.71
2600 2 -16.5147 -56.8005 -16.2307 -555.38 -243.628 -481.715 44.2437 -78.5513 -69.0336 -257.452 343.993
5096 2 -12.3113 -56.5703 -15.6359 -538.666 -138.611 -522.938 107.006 -87.0955 -82.756 -256.723 481.304
5093 2 -15.5192 -58.1805 -14.2236 -388.616 -598.973 -675.455 -33.4983 -5.50518 108.685 -253.689 324.165
7589 2 -10.3478 -57.8099 -14.4172 77.6186 -677.27 -756.389 6.84956 -83.7663 126.12 -242.084 839.495
5214 2 -10.6582 -49.7874 -3.89243 -165.049 -678.388 -386.678 57.4946 -154.466 -4.86174 -246.186 529.559
5224 1 -15.0128 -52.5043 0.247752 1082.88 1020.71 814.553 -5.10599 -49.2933 -184.201 -843.482 410.292
5223 1 -11.7871 -50.4976 3.88096 925.735 936.853 1024.06 -47.6648 -1.01365 2.65642 -857.905 124.656
103 2 -24.5783 -56.2273 -20.1622 -552.281 -420.402 -443.536 55.0196 109.102 173.799 -258.402 387.667
104 2 -22.6664 -56.3558 -15.3515 -572.175 -315.314 -495.813 16.8933 89.0835 -140.381 -256.831 368.752
2599 2 -20.2357 -56.3847 -19.4391 -518.041 -355.054 -372.792 11.6623 -14.2658 258.762 -248.512 475.269
105 2 -23.4694 -55.6774 -17.8091 -496.49 -558.041 -447.831 36.2462 42.6026 -10.3099 -265.646 137.318
2601 2 -18.3893 -55.8738 -17.708 -535.196 -461.536 -629.87 16.2345 4.32385 108.555 -262.158 239.921
2593 1 -19.7902 -55.3782 -18.1745 606.618 745.076 1154.23 119.862 27.8982 32.8264 -812.898 540.27
97 1 -24.6889 -55.3932 -18.785 696.105 906.994 776.416 -132.842 75.3025 102.468 -815.53 368.02
102 2 -20.9252 -55.5382 -17.0243 -87.8217 -447.304 -562.91 -16.0135 -159.859 9.40645 -258.161 511.713
99 1 -22.5016 -55.3377 -16.6094 951.62 972.803 1048.67 -124.782 -57.829 32.0522 -807.749 260.073
203 2 -24.7301 -53.8271 -19.1305 -483.646 -460.659 -584.818 44.6612 -144.359 -46.5611 -255.832 296.81
2699 2 -19.7717 -53.9652 -18.8196 -439.625 -635.104 -429.432 -29.6443 -5.44238 -145.022 -261.354 325.773
108 2 -22.7228 -53.7522 -16.164 -493.809 -152.521 -547.917 17.3248 -17.8595 137.945 -254.063 443.639
196 1 -24.3933 -52.9492 -20.4071 1026.42 494.456 1288.58 27.0079 -24.8205 188.903 -822.684 776.057
2704 1 -19.3424 -52.5457 -14.4687 853.812 880.168 948.313 78.6565 -56.429 -139.663 -826.07 306.21
2692 1 -19.6188 -52.8452 -19.995 762.03 786.794 1105.3 -45.8671 33.7452 57.3917 -819.452 359.94
2693 2 -20.8066 -52.3637 -15.0728 -418.019 -513.629 -581.124 -53.5549 -15.5042 71.5334 -254.413 211.723
194 1 -22.3326 -52.3453 -15.5329 949.121 609.441 1016.24 78.2625 -9.13255 -30.1255 -837.177 405.009
199 2 -24.0805 -51.4482 -19.9915 -575.099 -254.75 -665.476 -102.86 19.7524 46.178 -254.656 423.146
2695 2 -19.8484 -51.4113 -19.2997 -509.119 -287.313 -564.433 -118.822 -66.2834 149.438 -253.493 432.501
200 2 -22.5009 -51.139 -16.5139 -653.399 -319.838 -621.425 -21.645 -26.709 13.302 -246.211 325.11
2689 1 -19.7364 -49.891 -18.7675 548.065 886.961 1206.1 5.25419 -44.6246 -62.5301 -830.042 585.353
193 1 -24.364 -49.9295 -19.5412 904.165 848.995 969.282 28.3626 -43.7529 -32.1879 -824.525 148.798
2698 2 -18.2083 -52.3094 -15.6284 -242.655 -411.559 -391.052 -41.8002 -244.586 76.2388 -246.822 477.107
202 2 -23.4351 -52.1788 -14.3421 -310.544 -515.382 -518.332 5.44811 -270.088 6.4265 -241.685 511.495
2782 2 -18.1854 -52.9005 -20.6665 -493.084 -430.266 -544.02 47.9396 -130.344 -23.0146 -261.611 263.044
2697 2 -18.275 -49.8183 -18.226 -509.211 -555.994 -717.422 -75.5214 -14.4527 -23.1822 -251.135 234.839
5225 2 -15.8695 -52.7231 6.66512 -289.927 -592.036 -550.938 -7.09128 175.001 -15.5017 -238.86 416.282
5190 2 -10.629 -49.6283 -17.7872 -182.346 -487.173 -509.196 -8.37055 -211.598 94.6774 -252.802 511.41
5095 2 -13.7545 -56.2062 -20.1876 -589.135 -601.161 -635.847 -46.1468 -149.255 20.5047 -254.106 276.126
5188 1 -14.1486 -52.8251 -20.6997 861.271 819.58 1276.24 -58.9502 32.1171 136.652 -820.638 510.661
2598 2 -15.8696 -55.8424 -18.5386 -275.938 -504.635 -656.543 67.7635 -207.087 0.987922 -252.283 502.546
2595 1 -16.8406 -55.685 -17.3103 677.063 817.742 999.878 35.7093 128.712 -64.0585 -818.207 380.03
5097 2 -13.5045 -55.5153 -17.6494 -414.903 -644.145 -653.414 31.939 66.1645 91.0409 -247.071 309.55
5091 1 -12.2505 -55.3016 -16.6309 858.939 751.95 967.582 -62.3668 -49.502 -162.23 -825.034 364.486
5094 2 -10.9214 -55.2401 -17.5034 -428.468 -523.977 -536.858 53.0644 -25.2545 10.2906 -261.375 145.591
5089 1 -14.3515 -55.3498 -18.9621 961.598 715.014 910.519 -31.7595 -60.9568 -87.2609 -820.19 296.369
2604 2 -16.6373 -54.1449 -16.8503 -440.451 -384.621 -630.292 15.4899 -11.8612 37.3465 -261.973 234.695
5100 2 -12.5128 -53.8902 -16.003 -532.281 -395.524 -776.714 -34.3339 -57.8796 -127.754 -254.814 417.645
5195 2 -14.2952 -53.8783 -19.5058 -510.853 -633.783 -552.693 169.361 -39.0005 -104.467 -254.016 367.521
2690 1 -16.7176 -52.6926 -16.2636 990.674 642.414 976.508 -196.181 -153.695 -50.0313 -826.925 557.126
5189 2 -15.726 -52.5144 -15.0432 -531.562 -614.923 -603.829 112.288 -15.8346 81.8269 -254.838 254.582
5186 1 -12.1368 -52.4473 -15.4181 562.046 826.741 1182.51 -1.99634 13.8157 -136.506 -827.317 589.312
2696 2 -16.4327 -51.5599 -17.3464 -508.489 -137.785 -647.676 -11.5973 91.1494 -63.3001 -248.116 495.722
5192 2 -12.1538 -51.182 -16.4301 -528.426 -462.406 -656.576 0.764874 65.8598 17.4464 -257.797 207.771
5191 2 -13.9053 -51.3487 -20.0361 -531.616 -243.033 -592.41 -100.308 -94.2213 147.693 -247.094 476.212
2691 1 -16.7325 -49.9983 -17.8263 718.242 984.952 950.619 -145.821 132.542 -94.0823 -826.906 454.096
2694 2 -15.7836 -49.7878 -19.0439 -485.887 -604.298 -745.002 -7.47005 65.9728 166.381 -250.128 383.083
5187 1 -12.1021 -49.7961 -17.0931 1120.11 671.822 1179.8 -140.137 5.86836 115.271 -826.456 574.597
5185 1 -14.2642 -49.8653 -19.5333 933.154 720.471 861.595 -138.366 159.462 28.4971 -835.186 413.874
7685 2 -10.7195 -52.5988 -14.7655 -528.166 -523.284 -615.305 -8.7282 17.374 35.5143 -253.818 113.843
5194 2 -13.2247 -52.1903 -14.2696 -257.034 -625.068 -511.853 69.8137 -157.652 -9.52116 -242.71 442.782
7505 2 -10.5301 -63.3549 -7.12146 -512.279 -750.698 -353.335 -21.2066 151.509 95.0041 -232.944 466.148
4913 2 -21.1603 -68.4409 -7.42499 -133.662 -834.692 -156.968 -6.93975 246.95 -51.4451 -239.478 816.508
2422 2 -23.7911 -67.4998 -7.8334 -377.463 -357.788 -806.615 -83.7106 5.39245 33.4958 -263.077 466.345
2414 1 -22.2206 -67.3962 -8.08034 907.072 1171.47 750.046 90.6289 176.023 124.689 -805.132 548.013
2328 2 -22.1252 -66.8966 -9.58041 -751.017 -603.905 -290.903 -131.445 -55.2224 -227.308 -249.962 617.776
4915 2 -19.3603 -66.6701 -13.8097 -529.14 -343.087 -217.843 16.8817 -93.4398 396.45 -271.27 756.419
2419 2 -25.2163 -66.3843 -13.4059 -389.268 -104.298 -46.087 118.235 131.532 372.011 -271.777 781.154
2418 2 -20.8899 -65.8068 -11.7882 -570.994 -438.024 -263.345 -44.0896 -275.586 1.88943 -256.593 552.364
2421 2 -23.4119 -65.6144 -11.5444 -451.511 -428.121 -233.242 -87.0256 296.705 -20.8335 -256.21 575.506
2415 1 -22.0479 -65.7191 -10.6535 1110.28 936.076 790.833 158.309 120.665 82.7994 -829.964 464.95
4909 1 -19.5445 -65.5372 -12.6156 993.886 838.938 1094.35 90.9571 23.7979 -172.046 -813.872 406.184
2413 1 -24.8357 -65.2766 -12.2123 1081.03 842.175 937.093 49.5667 45.418 9.00265 -820.973 239.151
2424 2 -21.7654 -64.4847 -9.67536 -576.476 -681.88 -149.673 -5.28846 114.235 320.157 -236.93 764.848
2519 2 -19.5347 -64.0995 -13.3779 -518.397 -183.439 -530.094 -28.7872 -12.208 -120.255 -254.043 403.199
23 2 -25.0426 -63.8296 -12.7793 -533.475 -476.674 -595.437 -122.215 9.31849 90.3105 -262.347 283.06
22 2 -23.3611 -63.8379 -7.78556 -379.608 -466.001 -498.051 53.1837 -228.637 -71.2504 -243.461 437.949
14 1 -21.8822 -63.4561 -8.35895 1128.09 904.361 1147.16 153.226 156.095 -80.1335 -845.181 466.348
2420 2 -21.26 -66.3247 -7.1812 10.9553 -841.296 -368.728 32.0236 134.928 -23.2657 -226.003 778.603
4918 2 -18.6394 -67.4099 -7.1622 130.616 -348.13 -714.89 59.8665 -233.926 9.96042 -258.061 845.287
2428 1 -25.1668 -67.5142 -7.11065 741.56 1094.5 1109.63 -9.51688 174.477 45.5424 -820.377 477.447
2513 2 -20.8697 -63.5519 -7.10163 -444.447 -730.263 -111.908 -110.54 156.101 54.8376 -243.167 637.259
4917 2 -18.3801 -65.5808 -11.5023 -396.347 -502.205 -189.121 -13.5922 235.696 99.2918 -256.921 522.374
7308 2 -10.4156 -69.7477 -13.842 -511.386 80.8513 -650.55 258.37 220.51 326.391 -267.723 1057.48
7409 2 -16.0749 -68.4807 -7.35822 79.4575 -631.37 -360.926 15.0403 199.998 -7.37004 -230.571 712.051
7414 2 -13.4614 -67.6131 -7.68526 289.706 -361.222 -719.478 -13.2404 -188.971 -0.114302 -257.286 944.938
4910 1 -17.1494 -67.3381 -7.78978 797.4 1168.43 1126.55 88.1811 82.6698 8.50186 -807.112 409.789
7406 1 -11.8172 -67.4352 -7.95796 921.61 1138.01 936.335 -103.296 -198.469 -15.538 -814.13 441.318
7411 2 -14.5017 -67.1679 -12.7798 -578.538 -212.523 -581.202 -26.2352 45.0284 276.752 -265.797 610.632
7320 2 -11.5471 -67.0205 -9.4725 -591.685 -475.816 -465.505 91.3872 -200.29 -147.028 -248.658 474.323
4824 2 -17.3895 -66.9103 -9.34601 -698.348 -418.723 -179.617 -150.406 104.915 -193.287 -247.763 644.351
4916 2 -15.9425 -66.3266 -7.22688 89.5636 -908.433 -555.676 -18.7748 20.4663 32.9234 -233.54 879.744
7405 1 -14.4975 -65.8533 -11.8806 875.249 825.686 1013.19 -41.6324 96.5037 -294.134 -830.573 566.573
4914 2 -15.7877 -65.7832 -10.9462 -373.629 -590.941 -578.078 -147.136 -94.1585 197.313 -248.968 502.928
4911 1 -17.2544 -65.6277 -10.317 1073.07 1080.35 751.97 21.5475 163.068 -75.6101 -828.064 451.458
7407 1 -11.6642 -65.7305 -10.406 755.108 1094.68 897.753 -40.6254 83.1145 -3.95864 -840.03 336.063
7413 2 -13.1301 -65.7629 -11.0245 -443.4 -559.41 -511.794 67.5243 136.952 117.741 -245.881 348.908
4920 2 -17.3945 -64.3662 -9.30905 -583.542 -375.674 -261.834 14.5267 -88.1603 241.196 -255.084 527.55
5015 2 -14.6165 -64.5303 -12.8211 -638.05 -82.3419 -654.408 93.0623 -63.9213 -11.1398 -246.44 597.312
7416 2 -11.4477 -64.3953 -9.48017 -573.74 -190.473 -483.807 98.2196 67.5992 323.393 -236.023 690.589
5014 2 -13.1084 -63.5908 -7.7234 -477.458 -566.828 -687.594 139.985 -66.268 -17.5922 -230.256 325.967
2510 1 -17.185 -63.4071 -8.04099 1150.47 1110.06 1090.41 -81.6042 106.644 -289.235 -841.833 554.87
5006 1 -11.6011 -63.2761 -8.28227 1036.76 1029.3 1056.43 -30.7991 11.1317 -125.759 -861.931 226.391
5009 2 -15.6837 -63.419 -7.46414 -354.473 -690.802 -522.023 75.6937 131.163 176.283 -235.011 496.855
9905 2 -10.6871 -68.4049 -7.28752 -135.765 -800.823 -355.561 46.1434 327.719 73.996 -223.632 830.331
7420 1 -14.8198 -67.4593 -6.8702 658.261 1166.64 1082.6 -1.17518 31.5167 -79.3207 -816.955 494.618
9893 2 -10.5005 -67.7119 -15.1783 76.3473 -330.388 -640.677 -311.963 244.504 -117.021 -266.446 948.846
5008 1 -14.5579 -63.1895 -13.7124 1121.25 998.75 954.807 -44.549 -220.069 0.394699 -831.446 416.614
5133 2 -13.2076 -54.6653 2.54013 -502.614 -655.169 -578.011 81.9578 28.1579 14.0173 -236.899 201.432
106 2 -23.2428 -58.3047 -13.7639 -446.027 -549.303 -346.064 95.5845 -162.219 77.8425 -256.186 394.354
16 1 -25.001 -62.3606 -13.4179 931.687 716.455 785.727 100.757 128.694 -220.651 -809.541 512.266
2608 1 -19.3811 -58.0252 -13.7646 866.13 874.621 1177.33 -49.5029 34.1346 -184.824 -824.949 455.636
20 2 -21.8076 -62.0922 -9.13525 -621.254 -462.83 -448.091 -102.798 -55.0591 -163.234 -245.039 385.205
2515 2 -18.9832 -61.5839 -12.9374 -538.242 -471.84 -424.43 -89.0795 -155.066 157.996 -248.503 425.012
21 2 -23.6975 -61.007 -10.4957 -371.964 -563.052 -505.637 -50.1722 -30.0375 104.183 -250.377 267.695
18 2 -21.1037 -60.911 -11.3358 -123.698 -519.149 -379.464 14.9001 -291.089 83.5285 -247.975 629.643
15 1 -22.169 -60.824 -10.0963 965.921 986.842 991.163 46.57 26.0964 -100.72 -837.979 198.821
2517 2 -18.5988 -60.5481 -10.5725 -390.427 -588.493 -623.768 -45.236 85.7891 32.1524 -241.802 280.679
2509 1 -19.5718 -60.5318 -11.8125 1202.16 843.719 848.202 -51.3412 -139.77 -96.0366 -833.362 470.189
13 1 -25.0953 -60.4133 -11.0728 1130.47 741.575 681.26 -24.0499 138.89 -132.572 -831.907 539.137
24 2 -21.9623 -59.3555 -9.50408 -584.599 -19.3598 -530.728 36.4373 -16.2041 136.631 -246.687 593.904
2615 2 -19.4758 -59.1223 -12.5349 -601.274 -287.847 -426.209 150.678 -60.1648 -130.324 -248.216 451.595
119 2 -24.7757 -58.9864 -11.6642 -624.716 -663.622 -364.485 -44.4854 -51.4145 -1.16171 -255.444 305.335
112 1 -24.6779 -58.1574 -13.0201 1109.11 839.563 791.714 -44.8684 71.4392 -100.417 -820.999 373.42
124 1 -24.6422 -57.7243 -7.51217 794.612 1074.77 932.255 112.669 108.282 -67.8376 -838.163 382.016
110 1 -21.9846 -57.7481 -8.99974 909.469 1056.6 913.609 -64.3221 -32.2915 -18.442 -832.134 193.95
118 2 -23.5119 -57.4349 -8.60101 -303.141 -565.322 -603.624 0.0100993 -127.123 30.8701 -250.179 362.749
2609 2 -21.0602 -57.6503 -7.7493 -397.799 -585.417 -436.013 -24.0791 110.722 -25.6138 -251.992 264.531
116 2 -21.5713 -56.7632 -10.2025 -529.894 -350.279 -313.74 9.02228 -18.2931 -145.666 -252.547 324.135
2611 2 -19.0266 -56.5265 -13.2622 -532.947 -318.265 -595.038 120.581 -26.8439 110.146 -251.002 381.38
115 2 -24.7725 -56.5702 -12.6325 -642.035 -352.581 -527.21 -84.3281 -75.8613 189.73 -247.925 458.61
2614 2 -18.4033 -57.5234 -7.55628 -228.665 -538.71 -382.053 23.1607 -236.895 102.138 -246.703 522.841
19 2 -25.4557 -61.2804 -12.3482 -822.947 -517.387 -500.541 -13.3695 -39.7682 95.0187 -249.907 362.166
5012 2 -11.5765 -61.8625 -9.01554 -549.719 -425.425 -302.251 -7.73484 -43.6815 -177.573 -242.467 382.663
5011 2 -14.5777 -61.7917 -12.8723 -563.343 -13.4496 -252.387 -69.1548 -89.7053 339.497 -245.811 782.526
2516 2 -17.3533 -61.8076 -8.58757 -588.061 61.5063 -380.278 110.967 -100.252 -169.309 -239.783 695.149
2514 2 -15.9946 -61.0052 -10.7458 -329.155 -528.847 -446.685 22.8605 -180.85 106.016 -246.261 404.508
5013 2 -13.3446 -60.9838 -10.7267 -564.096 -574.085 -730.859 2.02253 -64.4622 79.2328 -250.321 239.908
5010 2 -10.8222 -61.0288 -11.575 -311.076 -504.852 -299.536 -6.90786 -249.029 24.8082 -244.967 477.446
5005 1 -14.6458 -60.7329 -11.5622 785.859 802.694 1128.34 -29.8992 19.18 7.50553 -839.681 340.239
2511 1 -17.2117 -60.6595 -9.71939 1071.59 772.323 1114.69 -120.519 -1.8346 -215.785 -845.711 536.274
5007 1 -11.8551 -60.822 -10.2577 788.945 927.267 1441 -30.9926 -173.707 -128.812 -834.877 705.192
5016 2 -11.698 -59.2918 -9.72961 -539.939 -330.217 -634.388 -11.9077 2.52746 119.584 -245.784 340.672
5111 2 -14.6763 -59.2498 -12.0759 -613.53 -346.969 -599.98 7.45774 -30.2029 12.5878 -246.233 266.468
2520 2 -17.0548 -59.186 -9.1788 -594.174 -168.741 -587.289 -107.404 -147.102 107.691 -245.481 558.952
5098 2 -12.9529 -58.0594 -13.595 -417.36 -582.318 -543.575 54.7122 -36.3334 77.6298 -256.041 230.957
5104 1 -14.4465 -57.9684 -13.066 832.435 715.051 878.779 55.3469 89.1058 -256.273 -831.319 501.402
5102 1 -11.7552 -57.8024 -9.22183 903.485 848.898 1031.62 -32.3111 -25.1476 -157.111 -852.031 324.769
2606 1 -17.1625 -57.6535 -8.5599 916.599 945.379 1026.19 -80.5822 112.08 66.8141 -838.913 283.273
5110 2 -13.2082 -57.5953 -8.5373 -383.978 -570.075 -334.703 76.8981 -239.451 11.7626 -242.951 486.206
5105 2 -15.7506 -57.433 -7.79072 -364.516 -570.721 -543.401 -4.4451 62.6036 39.6003 -245.473 232.711
5108 2 -11.4379 -56.6837 -10.321 -431.24 -139.627 -484.543 6.74259 -5.46983 -181.746 -242.996 450.271
2612 2 -17.3465 -56.4971 -9.61316 -579.732 -164.293 -620.459 32.3293 -28.6282 8.72937 -250.678 443.836
5107 2 -14.612 -56.5513 -12.4562 -646.461 -476.814 -631.246 -22.8089 -10.9833 -41.0848 -250.975 182.803
5116 1 -14.2816 -57.8459 -7.34839 923.885 1144.92 1032.33 32.9513 9.77922 -61.3721 -842.879 226.917
7601 2 -10.7141 -57.6249 -8.00378 -382.588 -658.232 -433.26 72.1118 160.999 155.99 -236.193 480.563
111 1 -21.7446 -55.2801 -10.8537 686.842 961.684 742.094 -82.1502 109.332 -296.656 -835.419 619.294
2605 1 -19.223 -55.0469 -12.675 968.598 734.733 871.06 -152.813 9.95698 -46.8912 -825.63 344.013
114 2 -20.7063 -54.98 -12.0237 -400.134 -527.5 -614.896 117.168 -106.64 -9.6036 -247.933 332.52
109 1 -24.701 -55.1713 -11.8904 866.434 853.923 1146.53 -12.2593 69.6393 -139.572 -830.34 394.404
117 2 -23.2194 -55.0276 -11.3348 -542.454 -526.672 -636.372 -73.8668 -88.3589 20.1729 -253.415 227.076
2711 2 -19.1382 -53.9854 -13.8423 -520.094 -559.388 -471.38 -11.9645 44.2981 48.4747 -261.793 138.553
120 2 -21.4188 -54.2509 -9.73819 -610.963 -548.013 -697.774 -7.15291 -55.185 92.2287 -244.522 227.534
215 2 -24.9287 -53.9447 -13.0044 -550.555 -499.448 -454.177 -46.2111 50.1189 -118.588 -246.637 251.21
214 2 -23.1573 -53.2795 -8.02296 -412.396 -582.485 -487.431 -11.1409 -161.573 77.4768 -248.574 344.233
206 1 -21.6771 -53.1263 -8.60158 847.295 1057.71 903.205 7.35424 -5.49628 -211.549 -834.75 412.489
208 1 -24.8603 -52.5466 -13.6534 1021.71 786.902 985.336 77.7287 -27.344 -79.014 -837.082 294.981
212 2 -21.5365 -51.6786 -9.29089 -536.003 -317.572 -560.26 -108.5 83.9883 -77.5432 -244.412 357.933
2707 2 -19.1518 -51.4145 -13.352 -607.424 -351.961 -559.267 -3.68565 69.0412 133.729 -253.026 351.097
211 2 -25.1573 -51.465 -12.4493 -563.602 -392.223 -294.235 -58.4992 -33.5968 252.411 -249.351 510.443
213 2 -23.2711 -50.5996 -10.8704 -470.302 -545.681 -583.955 -43.7877 -30.9252 28.1317 -253.681 145.008
210 2 -20.6627 -50.6684 -11.4037 -410.866 -597.196 -627.471 -37.8135 -141.3 92.3692 -239.666 362.021
2701 1 -19.2525 -50.4041 -12.1244 886.361 1008.97 900.281 67.2203 13.4127 -140.468 -834.158 294.635
207 1 -21.8218 -50.4464 -10.3065 686.875 774.772 967.621 34.8364 24.7164 -141.434 -841.103 356.863
205 1 -24.7829 -50.3394 -11.3677 834.355 934.308 982.528 91.2171 87.1675 -31.6774 -825.312 260.58
2705 2 -20.6958 -53.3859 -7.35841 -348.566 -594.005 -486.093 -23.9634 33.6565 -41.8395 -252.457 236.161
2709 2 -18.1737 -50.6436 -10.9507 -384.916 -569.738 -134.974 -46.7243 237.984 -3.36096 -251.098 565.081
2613 2 -18.1611 -54.8895 -11.4995 -517.977 -642.368 -405.166 -24.1095 46.1114 4.49431 -254.496 224.533
7697 2 -10.4753 -52.9346 -7.52151 -321.041 -596.567 -425.865 -12.4817 155.967 47.3342 -246.183 371.735
5106 2 -10.454 -55.0514 -12.1335 -416.896 -580.665 -613.049 -63.5809 -101.28 115.71 -256.242 340.939
5103 1 -11.5516 -55.1439 -11.0167 593.882 1280.07 1084.84 -27.9648 172.336 -195.617 -829.087 762.396
5101 1 -14.5548 -55.0062 -11.9685 719.057 838.073 991.948 -13.7607 2.64282 -100.458 -829.381 294.993
5109 2 -13.0327 -54.897 -11.4963 -363.503 -620.234 -625.607 -60.7526 -54.3427 63.9481 -254.422 315.467
2607 1 -17.1725 -54.9961 -10.2506 1022.19 1027.68 693.982 25.5148 19.2967 -254.713 -827.379 554.308
2610 2 -15.6681 -54.8172 -10.8416 -324.418 -566.468 -523.622 68.1683 -143.992 52.5859 -250.496 366.729
5112 2 -11.2235 -54.1384 -9.74968 -474.924 -536.776 -265.056 49.6974 12.5652 268.396 -245.457 533.707
2616 2 -17.3939 -53.8409 -9.20847 -585.857 -300.355 -483.996 101.457 34.1098 159.64 -257.422 416.691
5207 2 -14.803 -53.9246 -13.0817 -574.544 -323.059 -623.293 27.4167 -18.4198 61.2023 -254.49 303.959
5206 2 -12.9825 -53.3267 -7.90187 -368.886 -658.64 -469.215 -30.7638 -182.006 100.248 -242.726 444.206
5201 2 -15.5794 -53.0214 -7.46011 -508.679 -550.709 -441.989 -35.9019 199.433 29.0186 -252.881 367.056
5198 1 -11.6034 -53.0444 -8.6485 862.712 1074.05 871.492 -46.0121 -17.2818 -202.61 -844.679 416.274
5200 1 -14.7793 -52.4661 -13.7838 1051.11 1036.26 704.984 -38.645 -39.5514 -133.998 -828.569 421.813
2702 1 -17.0554 -52.8019 -7.98937 744.373 884.076 928.02 -70.8178 99.5853 42.8901 -823.232 279.111
5204 2 -11.7502 -51.6501 -9.49132 -531.909 -338.616 -539.581 38.4993 21.5582 -68.2645 -244.935 242.333
2708 2 -17.3497 -51.3316 -8.44778 -511.401 -629.269 -522.073 14.5085 3.53665 88.9297 -260.199 192.726
5203 2 -15.1726 -51.312 -12.7632 -560.427 -250.495 -291.3 95.9095 46.4653 273.911 -251.044 586.713
2706 2 -15.6384 -50.5553 -10.2654 -504.45 -618.12 -562.937 159.634 -88.1276 2.58046 -257.527 330.851
5205 2 -13.1964 -50.4032 -11.237 -172.556 -526.248 -568.196 39.8379 132.648 77.6959 -248.557 466.21
5199 1 -11.733 -50.4065 -10.4868 760.046 891.361 1117.75 22.0452 172.171 -101.482 -837.656 468.516
5197 1 -14.7604 -50.2373 -11.5393 867.098 1020.72 1019.17 -144.461 227.693 19.534 -824.09 492.594
2703 1 -17.1081 -50.4005 -9.70294 939.812 773.022 932.655 -31.5702 211.115 -4.87935 -821.689 404.286
5202 2 -10.5584 -50.6023 -11.5333 -511.46 -614.017 -584.499 -7.74118 -106.184 46.8484 -246.758 221.249
2518 2 -18.2906 -63.6723 -6.86409 -450.612 -451.645 -322.091 25.3346 -289.271 113.994 -247.041 555.513
4924 1 -20.1699 -67.4476 -6.59176 1012.59 1123.42 916.696 -114.105 1.88758 -23.0917 -812.846 269.773
2431 2 -24.8104 -67.2572 -5.55341 -775.181 -300.051 -340.238 153.185 37.6899 279.983 -240.978 719.792
4927 2 -19.9706 -67.1574 -5.03123 -704.026 -217.38 -74.9238 152.273 131.443 456.061 -241.845 1035.28
2432 2 -23.0133 -66.2975 -0.965059 -642.007 -365.561 -33.9461 142.123 -315.142 -210.782 -258.655 877.435