ITEM: TIMESTEP
800000
ITEM: NUMBER OF ATOMS
29952
ITEM: BOX BOUNDS pp pp pp
-2.5615833775063237e+01 3.5601128117061187e+01
-8.8055133238107643e+01 9.8040427572306385e+01
-2.1035324467156940e+01 3.4903177627851115e+01
ITEM: ATOMS id type x y z v_StrAtomXX v_StrAtomYY v_StrAtomZZ v_StrAtomXY v_StrAtomXZ v_StrAtomYZ c_PEAtom v_VMS
2400 2 -19.6325 -67.1822 -18.4482 186.262 -535.624 -284.454 -169.94 462.447 -121.34 -269.87 1084.1
4901 2 -21.1824 -67.0558 -14.9847 338.513 -523.922 -431.452 -176.174 257.187 -178.157 -287.113 1029.25
2316 2 -21.9693 -66.8953 -17.5009 -485.494 -443.117 28.5359 -39.2731 -236.119 -52.3526 -276.035 651.418
2494 2 -22.1151 -66.6074 -20.1957 67.3709 -509.705 -79.1891 -87.4804 577.055 -105.31 -274.8 1151.14
2410 2 -23.9581 -66.4081 -15.5264 206.34 -497.897 -543.212 -323.619 -178.31 -127.751 -287.954 994.207
2486 1 -21.1702 -66.5139 -18.8482 1183.34 937.963 989.771 24.678 66.0976 -68.5753 -768.209 281.469
2402 1 -22.3687 -66.4265 -15.957 769.55 961.877 1296.8 111.56 118.341 339.583 -758.853 799.299
2407 2 -23.7669 -64.6958 -20.1032 -525.391 -405.846 -279.525 -87.58 -36.594 92.8283 -273.952 313.414
4985 2 -20.699 -64.9428 -18.7793 -491.858 -258.741 -569.044 181.48 -97.4385 -50.9114 -277.568 461.907
2408 2 -22.0433 -64.8188 -15.969 -403.106 -108.897 -603.599 -115.723 -12.0913 -137.628 -277.082 532.147
4912 1 -19.6592 -66.906 -14.5051 552.884 858.077 1177.16 259.806 110.786 -37.3061 -736.08 732.003
2416 1 -25.3693 -66.0744 -14.8715 445.585 846.72 1087.38 -309.527 -26.1478 96.7992 -743.451 795.58
4904 2 -18.5796 -67.1268 -15.9299 -104.942 -766.456 -440.06 -298.79 -5.62554 43.0173 -307.815 775.689
4900 1 -18.2946 -67.0236 -17.574 875.177 1034.31 929.486 186.406 -93.1865 431.264 -768.528 841.361
4896 2 -16.3696 -70.6177 -17.9693 -330.669 181.432 -512.518 53.3322 43.7479 56.7084 -161.926 642.156
7392 2 -12.2246 -70.2536 -15.0107 491.429 -196.954 -926.132 -125.862 -1.28825 -10.5006 -269.602 1247.15
4982 1 -16.124 -69.3808 -17.0824 1001.96 677.25 1503.16 131.556 116.177 -39.7001 -823.129 785.189
4812 2 -17.015 -69.231 -15.7056 -490.681 -508.61 -947.103 -107.845 -116.095 87.7457 -250.412 546.702
7396 1 -13.4624 -69.1966 -15.2864 486.988 360.337 1931.72 90.5815 -6.36428 -35.2746 -740.419 1521.43
7481 2 -14.5992 -69.3028 -16.3983 18.8531 -185.482 -642.989 -165.984 484.643 -189.06 -272.712 1113.13
4903 2 -17.7731 -65.4591 -17.6474 -429.27 -74.645 -644.712 156.995 8.49256 -67.4996 -269.522 580.002
7486 2 -12.1081 -68.1387 -15.8322 100.92 -207.427 -1161.71 -127.33 -39.6252 -180.397 -295.439 1204.56
4990 2 -17.033 -68.0308 -17.6651 159.158 -354.373 -741.715 -484.179 244.158 -86.4262 -256.27 1231.75
4898 1 -17.4147 -67.9457 -14.9668 219.832 791.223 1234.62 517.772 69.5071 -9.61998 -749.053 1263.12
7394 1 -12.043 -66.5234 -15.6387 754.489 124.928 1515.34 -56.6543 193.818 384.469 -766.981 1421.27
7402 2 -13.3463 -66.1851 -14.8145 -73.6426 -519.767 -1035.9 49.9659 54.5563 73.2496 -274.747 853.344
7400 2 -12.3714 -65.8487 -17.0467 -463.146 -202.732 -630.657 -46.7151 258.226 -315.593 -264.487 803.046
7397 2 -16.0979 -67.0611 -14.6913 218.027 -484.373 -657.163 291.838 123.087 -3.57247 -280.82 972.414
7478 1 -10.8822 -69.328 -15.058 638.227 387.007 2076.4 122.714 -164.473 -3.67187 -725.723 1618.37
7399 2 -14.0673 -68.3376 -14.1045 -524.92 -191.887 -835.686 -219.936 -209.104 200.996 -270.657 841.707
7408 1 -14.5985 -66.8066 -14.0262 699.806 623.197 1106.63 112.645 245.914 -359.651 -776.706 900.043
9893 2 -10.5903 -66.4459 -14.8919 64.0188 -385.929 -499.41 -311.883 322.928 -53.2685 -267.506 937.852
4906 2 -18.5897 -67.9564 -13.8958 132.187 -440.878 -943.023 -222.997 -40.9076 14.4989 -266.247 1011.51
4915 2 -19.4176 -65.5041 -13.8366 -543.529 -300.516 -365.905 49.0478 -30.0191 268.052 -276.993 522.414
2419 2 -25.1243 -65.0386 -13.6501 -452.513 -341.165 35.3884 79.9834 139.702 213.244 -278.71 640.531
2422 2 -24.0249 -66.0845 -7.97283 -148.106 -401.257 -738.096 48.0592 -130.788 -74.1985 -262.037 581.015
2414 1 -22.452 -66.1433 -8.27572 827.959 1187.36 685.161 -187.028 -42.4231 70.4362 -803.86 571.051
2328 2 -22.1831 -65.8603 -9.80475 -654.638 -742.291 -353.514 -16.0561 -100.131 -263.299 -255.157 602.98
4913 2 -21.6092 -67.2103 -7.33879 -123.12 -801.676 6.66017 72.7184 330.382 30.994 -232.461 954.75
2420 2 -21.5701 -65.1025 -7.38828 -441.717 -1201.51 -395.581 35.3031 158.581 75.4546 -228.761 843.05
4918 2 -19.1069 -66.0859 -7.34798 123.404 -378.294 -625.659 20.1459 -329.049 76.418 -260.344 883.487
7308 2 -10.6804 -68.4697 -13.7044 -517.046 -19.8473 -663.651 169.58 168.046 475.902 -263.08 1091.8
4824 2 -17.9238 -65.6869 -9.57986 -730.188 -394.695 -362.033 -120.292 -32.0432 -249.347 -250.191 597.991
7320 2 -12.103 -65.6978 -9.58862 -468.444 -524.555 -322.653 112.272 -142.35 -188.958 -251.929 488.165
7406 1 -12.3444 -66.1419 -8.05921 596.853 1202.12 1214.05 -232.736 -52.004 -102.667 -824.125 758.91
7414 2 -13.8821 -66.3367 -7.7015 -17.5688 -399.36 -710.75 75.333 -160.956 21.0554 -259.743 676.528
4910 1 -17.6521 -66.1938 -8.0679 947.925 1167.33 990.323 -131.127 87.7957 -42.28 -791.381 347.424
7411 2 -14.7355 -65.9954 -12.7039 -561.2 -272.914 -527.859 -19.4257 16.2594 270.238 -266.182 543.71
7409 2 -16.5038 -67.2882 -7.58183 102.531 -724.321 -381.866 -113.463 146.925 14.8858 -239.078 788.573
4916 2 -16.3986 -65.1401 -7.70468 -43.2184 -894.93 -682.171 80.1134 -92.4544 56.049 -231.259 802.366
9905 2 -11.2078 -67.1514 -7.34658 89.8697 -875.926 -367.364 108.758 440.822 -34.9713 -207.582 1149.94
7412 2 -11.4372 -65.1059 -7.19657 -31.1499 -1356.24 -671.005 158.403 129.03 84.4198 -217.123 1209.97
7420 1 -15.3697 -66.2395 -7.10921 432.346 1206.68 1077.83 -128.082 3.53121 -131.184 -820.825 785.685
2428 1 -25.3992 -66.4364 -7.23937 862.87 1102.5 816.637 -68.8839 -23.5703 5.8963 -805.404 294.352
4924 1 -20.5766 -66.1031 -6.61287 1036.89 1141.53 583.168 12.2322 -77.9738 -115.108 -807.296 568.09
2431 2 -25.0021 -66.0359 -5.73625 -836.871 -349.588 -386.172 127.413 100.989 378.024 -238.069 853.793
4927 2 -20.279 -65.7735 -5.12717 -676.618 -387.413 -339.179 147.905 34.0794 276.806 -253.482 631.58
2432 2 -23.3195 -65.3128 -1.0058 -581.129 -446.072 -280.4 227.754 -379.802 -51.743 -269.101 815.143
4929 2 -18.5737 -64.9088 -3.24998 -211.674 -614.371 -276.695 -126.308 220.066 -71.9799 -239.659 590.677
7332 2 -12.4149 -67.8703 -2.166 -497.295 -98.9109 -272.005 81.3431 26.2054 -37.4495 -119.356 381.879
7418 1 -12.6494 -67.0486 -0.844904 1338.84 1092.14 1508.96 -161.654 -61.2341 362.239 -940.708 784.263
7423 2 -15.1678 -65.8424 -5.56973 -632.146 -548.015 -272.324 176.092 20.44 361.219 -234.506 769.412
7424 2 -12.5635 -65.4498 -1.26402 -645.124 -461.865 -447.812 -15.6122 105.365 -358.948 -206.798 675.961
4928 2 -16.5507 -65.74 -1.42969 -416.123 -352.85 -427.21 -176.598 137.646 -144.063 -237.996 466.358
7432 1 -15.6892 -66.352 -0.219717 1562.38 981.955 1016.64 -76.3637 35.7817 137.574 -886.688 629.348
7426 2 -14.2628 -67.1159 -0.467991 63.1075 -719.134 -745.763 -92.7216 128.241 -245.822 -197.319 943.321
2433 2 -23.8751 -64.8704 -3.54484 -530.156 -713.234 -166.955 -82.9448 66.117 13.8904 -243.934 516.003
9917 2 -11.596 -67.353 0.406792 -186.495 -458.26 -364.432 48.5089 397.886 -45.2848 -205.431 738.453
4955 2 -18.0458 -67.8673 6.1587 -337.789 -561.32 -402.909 -261.594 -242.401 207.739 -204.771 742.082
4836 2 -17.7817 -65.355 2.5049 -666.153 -469.089 -853.801 32.7237 -93.8893 221.931 -209.891 537.069
2426 1 -23.7059 -66.1987 0.215647 857.381 1004.41 831.969 2.01535 268.282 -15.3148 -779.387 492.588
2434 2 -25.0387 -67.0465 0.426434 -199.615 -570.051 -505.947 -101.186 -387.156 -132.256 -255.27 806.501
4948 1 -18.9758 -66.5122 6.37654 1014.72 1183.26 727.581 265.143 45.4944 -283.318 -863.545 785.601
4930 2 -19.3581 -67.0877 1.51461 -161.05 -546.528 -686.198 -180.129 153.871 -27.7977 -230.431 626.6
4925 2 -22.3112 -66.7546 0.745408 147.73 -467.042 -621.633 -178.565 211.451 209.405 -244.619 926.404
4943 2 -21.3306 -66.7225 3.10877 -733.581 -484.067 -373.232 -47.6115 -87.936 -98.618 -235.96 401.711
4937 2 -20.2828 -66.5046 5.52583 -804.203 -585.876 -510.966 -145.47 108.743 -71.21 -230.823 428.724
4936 1 -20.8558 -66.4431 1.59764 1419.47 804.996 1125.09 141.686 65.3364 -196.553 -839.202 687.225
2446 2 -22.8764 -66.5007 5.31089 -417.65 -667.126 -391.491 125.596 -199.869 -29.5982 -222.494 489.125
2438 1 -21.4878 -66.086 4.57138 1226.86 1155.78 680.7 186.844 -87.5998 106.367 -863.95 652.854
2452 1 -24.2019 -65.7436 5.83805 993.564 1445.56 587.623 -13.3562 77.9757 -214.033 -886.435 841.887
2443 2 -24.5922 -65.1346 1.41074 5.52957 -439.737 -490.754 -16.9688 -389.956 178.034 -295.054 880.756
4939 2 -20.5892 -64.9249 1.16262 -657.454 -265.844 -540.154 159.451 -135.216 -47.0356 -244.774 508.864
4922 1 -17.8399 -66.9284 2.00092 1068.25 912.036 1419.04 29.7828 74.6333 181.922 -877.598 566.489
4942 2 -17.7827 -65.7961 5.47854 -486.123 -714.481 -467.229 -128.673 -143.836 190.848 -195.321 527.09
4934 1 -17.0524 -67.2097 5.04208 763.214 1295.89 1114.89 207.754 143.951 -63.2673 -879.337 650.961
7430 1 -11.2905 -66.331 4.46427 847.372 1163.61 1167.44 -251.129 -169.904 212.004 -898.21 715.45
9928 1 -10.4488 -66.8638 1.46573 1511.24 946.198 1253.22 -180.459 -50.4911 -79.1547 -908.414 603.488
7433 2 -15.539 -67.1581 5.3263 -171.103 -632.674 -589.257 236.462 180.391 56.3098 -213.031 685.398
7344 2 -10.9817 -66.9752 2.98834 -671.082 -521.216 -284.9 89.6442 -82.3662 9.55033 -210.632 398.064
7438 2 -12.6106 -66.7595 5.21455 -94.9935 -650.563 -510.868 69.3575 -176.322 53.3568 -212.311 605.642
7444 1 -14.1374 -66.2823 5.77625 1376.37 1339.28 1082.39 -236.72 -35.3202 -182.307 -912.079 590.3
4940 2 -17.5112 -67.5414 3.49753 -594.128 -726.974 150.614 -6.86071 178.06 -41.0284 -218.686 878.369
7421 2 -16.8224 -67.0447 0.774445 -495.324 -427.402 -342.553 118.434 -326.622 -177.611 -224.173 688.723
7436 2 -11.4449 -64.7369 4.18335 -669.337 -611.095 -706.014 26.0357 147.431 -55.3924 -208.724 288.652
2425 1 -25.0504 -64.845 -4.63472 1196.83 1249.93 604.778 123.924 169.76 -176.429 -850.439 781.467
7435 2 -15.0543 -65.1134 0.622747 -629.367 -544.374 -502.514 348.753 277.754 -14.4152 -213.093 780.695
7401 2 -14.0043 -64.7676 -18.8618 -299.492 -605.203 -150.152 119.158 408.989 -119.612 -266.372 865.302
7447 2 -14.4149 -64.868 5.22038 -411.127 -416.31 -303.889 39.5098 3.33448 57.8633 -140.425 163.84
4951 2 -19.2291 -65.7701 7.73425 -750.75 -213.392 -383.178 -166.838 -116.863 249.03 -232.307 732.714
2456 2 -21.7431 -65.7712 12.2851 -717.976 -553.736 -307.282 81.6153 206.376 -118.761 -234.933 564.146
2457 2 -23.0717 -64.9708 9.88007 -395.298 -705.354 -219.25 -56.4427 224.125 -96.0254 -226.07 607.971
2454 2 -20.4425 -65.0326 10.13 -384.919 -684.297 -451.541 102.775 -313.598 286.86 -227.896 804.802
2455 2 -24.1095 -65.4387 7.38537 -628.308 -757.808 -453.31 43.3906 70.5141 100.799 -227.313 347.999
2453 2 -25.2455 -66.3717 13.4478 -580.336 -418.321 -743.359 71.3194 110.874 -42.6298 -251.186 369.902
7485 2 -12.0892 -64.9588 31.91 205.658 -834.662 -487.343 -23.336 327.363 -269.306 -267.097 1175.71
2450 1 -21.8061 -65.8612 13.8744 654.555 1025.46 1225.37 -214.6 201.351 -82.9772 -854.383 729.47
7446 2 -10.4818 -65.1038 9.79779 -281.549 -718.936 -322.201 -76.777 -337.578 176.473 -219.981 792.572
7451 2 -14.1071 -66.2622 7.40168 -638.009 -515.847 -290.566 90.4999 58.5091 202.994 -222.336 501.653
7448 2 -12.9502 -65.906 9.98349 -548.631 -666.554 -435.287 160.073 316.201 438.702 -203.958 997.154
7441 1 -13.8986 -65.4357 8.72924 971.61 1114.55 1125.83 -172.623 -301.076 -411.515 -872.493 944.214
4950 2 -15.3637 -64.9236 9.3054 -260.675 -695.1 -685.303 -119.116 -58.4474 207.394 -215.899 605.323
2490 2 -20.091 -64.7947 32.0031 555.704 -479.414 -416.344 203.456 -132.431 59.3393 -295.16 1094.31
2458 2 -22.8507 -66.974 14.3593 -166.939 -781.016 -741.253 20.527 -244.575 98.9932 -216.026 751.244
2464 1 -24.1475 -66.0575 14.5409 663.606 1017.95 1146.61 18.4517 71.7402 -222.553 -834.86 593.932
2468 2 -22.2292 -65.7026 17.6472 -517.574 -626.492 -233.164 12.08 70.3328 44.3764 -132.001 380.677
4949 2 -20.5187 -65.4776 14.7225 -393.54 -317.694 -478.085 225.921 394.259 301.019 -224.66 954.249
2471 2 -24.9326 -65.408 15.7377 -729.479 -113.389 -660.451 -117.487 -15.8647 397.022 -232.851 925.661
2489 2 -24.8107 -66.5015 34.3044 522.154 -331.746 -551.884 65.0167 333.743 31.7504 -278.227 1146.93
2492 2 -22.4834 -65.3653 33.4455 -157.408 -294.876 117.454 228.131 -423.439 -369.034 -275.887 1111.23
4964 2 -17.3785 -65.7312 18.7373 -449.647 -338.544 -366.484 30.2116 21.7418 82.2765 -120.396 185.702
4974 2 -16.2924 -64.9635 24.4621 162.091 -705.59 -485.161 59.2758 -394.336 63.3618 -241.532 1048.47
2404 1 -23.3164 -65.9514 34.8044 1315.05 977.126 1142.67 48.9262 -116.012 117.179 -768.108 417.619
2451 1 -21.8059 -64.8729 10.9614 1342.8 1105.75 911.022 -243.538 147.56 -116.366 -865.874 651.269
2467 2 -23.0321 -64.8121 14.202 -163.532 -798.125 -692.949 222.87 -49.671 106.523 -207.928 733.132
7461 2 -13.2909 -64.8479 16.6671 -108.903 -780.822 -501.351 18.307 207.23 -74.7901 -217.45 698.868
2449 1 -24.1728 -64.6561 8.76732 1023.59 946.284 842.487 59.9019 87.5717 -45.0406 -877.27 254.229
12 2 -22.7833 -57.4877 -16.408 -575.894 -501.025 -277.875 65.2376 76.8253 229.241 -259.415 510.134
2603 2 -19.7553 -57.5768 -19.9282 -535.252 -672.251 -470.952 -52.1877 7.80534 6.32208 -267.438 200.464
1 1 -24.5212 -58.8615 -19.5362 943.341 473.779 755.111 -4.70117 -248.184 -67.1293 -794.548 604.901
9 2 -23.3615 -59.0945 -18.5155 -695.233 -512.66 -562.945 51.4373 2.04443 115.027 -264.313 272.625
3 1 -22.4299 -58.7811 -17.2671 666 828.002 646.125 -36.1832 2.1079 26.7497 -811.183 189.597
2497 1 -19.782 -58.7314 -18.8273 441.069 598.915 1048.83 130.316 -35.9439 -17.7604 -802.431 595.084
6 2 -20.9788 -58.6497 -17.8028 -691.576 -496.171 -701.044 41.5417 15.9625 -151.772 -265.307 339.365
8 2 -22.6394 -59.9306 -16.1871 -549.633 -620.832 -384.731 116.315 -130.765 -24.0585 -257.082 370.979
2503 2 -20.1616 -60.0475 -19.716 -523.17 -517.4 -656.936 34.8453 48.7554 74.7077 -257.046 214.979
2 1 -22.6977 -60.8676 -14.8646 748.013 619.961 1106.03 -66.6397 147.92 -198.215 -808.27 622.293
107 2 -24.4365 -57.3868 -20.0533 -504.55 -535.142 -486.461 37.3255 -125.166 -30.6956 -269.243 236.268
7 2 -24.5728 -59.8984 -20.6891 -525.662 -595.805 -718.428 110.831 81.3238 -127.779 -273.765 366.375
2507 2 -20.7238 -62.5459 -19.9573 -544.064 -603.926 -405.466 -112.428 118.299 -148.417 -271.398 420.804
2412 2 -22.928 -62.3308 -15.4251 -544.486 -330.447 -489.384 -64.4713 -65.7951 288.12 -265.217 558.167
11 2 -24.7269 -62.328 -19.7356 -484.862 -163.286 -434.144 -21.5555 23.453 -243.051 -270.375 519.556
2406 2 -21.3011 -62.7997 -17.4546 -517.462 -473.183 -581.423 63.5076 -146.74 -58.5695 -269.5 309.632
4897 1 -20.3861 -63.3841 -18.5821 566.782 840.412 977.723 -117.604 353.856 322.815 -778.748 927.934
4905 2 -18.8686 -63.2167 -18.0996 -330.335 -561.135 -577.759 70.5279 96.9091 -110.547 -272.631 370.325
2403 1 -22.543 -63.4101 -16.6036 819.61 786.033 1153.03 -21.4495 188.209 -74.0711 -774.654 497.594
2506 2 -18.6435 -61.366 -15.2711 -290.152 -466.229 -704.958 -25.219 -118.544 40.668 -267.839 423.151
2409 2 -23.6594 -63.683 -17.7192 -523.923 -523.432 -292.698 -92.5201 38.2202 -53.3572 -277.512 303.241
2401 1 -24.5412 -63.8203 -19.0697 695.735 1040.65 605.234 120.152 104.446 90.8778 -787.111 509.1
2501 2 -21.1697 -60.9053 -14.342 -317.681 -473.064 -724.761 -31.5462 -107.764 107.435 -261.169 446.158
4926 2 -16.1167 -64.3517 -3.57662 -586.555 -627.562 -463.951 111.133 -118.418 -6.02157 -230.241 317.757
2602 2 -18.3297 -57.2222 -14.7018 -242.548 -498.643 -505.043 128.787 -141.877 -74.5728 -260.75 440.56
2505 2 -18.4121 -58.893 -18.1594 -436.841 -405.282 -614.747 -31.5274 -23.519 50.3404 -273.909 224.733
2512 1 -19.6833 -61.4287 -14.1038 777.464 618.503 971.896 105.681 174.785 -154.791 -811.927 539.459
7425 2 -13.5149 -64.7594 -3.68712 -350.781 -729.392 -382.962 168.447 92.6273 143.074 -232.548 551.789
4908 2 -17.0676 -63.1785 -16.319 -531.625 -171.586 -596.296 36.5883 -54.4194 77.5149 -264.068 433.614
2508 2 -16.5895 -57.9337 -16.4889 -518.388 -325.032 -508.044 24.9011 70.4602 142.72 -259.152 336.681
5099 2 -13.8596 -57.4504 -19.9068 -457.189 -538.491 -482.525 50.7914 -30.8808 -74.4845 -266.059 180.1
5004 2 -12.5939 -58.069 -15.4362 -637.145 -102.699 -493.127 -134.711 -143.872 192.498 -251.954 676.098
5001 2 -13.2995 -58.9276 -17.7027 -429.011 -559.034 -606.541 16.0063 62.8237 -96.0687 -258.279 256.196
4993 1 -14.1423 -58.7597 -19.0503 829.218 777.455 1005.62 -64.0987 -46.5806 -63.5857 -806.242 271.83
4995 1 -12.1635 -59.1079 -16.6046 1093.5 862.288 858.267 -88.9388 -118.038 -8.62216 -817.241 346.635
2499 1 -16.8903 -59.0736 -17.6015 846.896 954.756 1015.16 11.7926 117.654 24.4657 -800.556 256.006
2502 2 -15.7105 -58.9071 -18.6645 -141.055 -544.705 -705.512 71.3973 -147.016 -38.1009 -260.444 581.542
4999 2 -13.8125 -60.0449 -19.9799 -532.418 -193.271 -522.454 39.1468 62.2852 190.686 -267.886 486.888
5000 2 -12.1483 -60.6766 -16.2296 -548.765 51.026 -554.693 119.223 -28.2828 2.13285 -258.439 639.059
2504 2 -16.7668 -60.5855 -16.9869 -490.794 -18.4425 -368.44 22.1802 -27.9381 -167.526 -266.194 517.982
2498 1 -17.1392 -61.6456 -15.7854 829.785 859.482 1000.48 -22.7033 -60.2568 -177.427 -800.233 363.085
4997 2 -16.1178 -61.5939 -14.5896 -324.938 -631.776 -568.004 -89.0784 132.167 -125.185 -256.288 449.302
5002 2 -13.606 -62.2164 -14.7117 -433.17 -488.56 -440.157 -70.1797 -115.065 103.805 -265.364 299.252
4994 1 -12.3719 -62.2298 -15.7121 907.397 907.536 1189.45 44.2559 128.757 -32.4607 -802.723 371.869
5003 2 -14.3265 -62.7159 -20.3223 -505.372 -455.066 -627.374 93.1844 -4.935 -65.9832 -280.058 250.473
7404 2 -12.7139 -63.2437 -17.0001 -361.973 -136.604 -82.0753 48.4618 97.1583 249.129 -273.261 536.297
7493 2 -10.9872 -62.6131 -14.9611 77.5349 -476.404 -380.338 50.5561 340.531 58.6225 -261.095 792.921
4902 2 -16.3109 -63.6731 -18.8201 -129.756 -559.043 -248.024 -37.8136 -359.421 -12.0471 -264.999 734.696
4899 1 -17.4651 -63.8681 -17.6979 674.812 777.845 1085.2 -80.3938 -57.762 21.2357 -792.951 409.274
7393 1 -15.0511 -64.0465 -19.8733 836.821 879.405 1110.78 -138.282 -24.6178 373.368 -771.295 736.611
7398 2 -11.5004 -64.5808 -19.0646 -425.106 -709.385 -438.664 -150.803 -109.794 -30.1694 -268.957 429.259
7395 1 -12.6488 -64.5399 -17.9885 678.019 1157.36 816.215 -27.1143 -36.644 478.491 -792.403 935.799
7499 2 -10.2636 -62.5022 -19.7885 -580.991 -276.657 -705.984 -82.3859 117.329 198.567 -267.365 571.165
4998 2 -10.7347 -58.7178 -17.2939 -247.851 -466.022 -353.959 85.4105 -221.863 -47.5626 -259.987 460.488
2686 2 -18.239 -55.7878 -20.9446 -85.923 -657.072 -654.666 102.846 -23.864 -54.8386 -264.585 606.057
2597 2 -20.9401 -56.6765 -14.7332 -411.281 -448.974 -503.055 -106.688 52.666 -4.31743 -272.488 221.152
98 1 -22.4892 -56.5593 -15.0811 846.065 1031.15 844.083 2.39568 140.087 14.6159 -798.21 306.854
2596 1 -19.7856 -56.1355 -20.5468 975.785 859.516 844.777 -113.363 48.337 36.5372 -794.725 254.985
103 2 -24.7434 -54.9084 -20.4945 -493.949 -548.254 -412.873 -60.9513 119.736 140.753 -266.719 357.092
104 2 -22.9376 -55.012 -15.4773 -501.828 -220.491 -363.562 -133.867 60.5418 -141.333 -260.927 429.012
2599 2 -20.2887 -55.0637 -19.4462 -572.152 -323.377 -340.844 16.4548 -54.7318 158.821 -267.609 378.576
105 2 -23.5651 -54.432 -18.0307 -216.44 -597.853 -205.214 -11.3514 242.166 77.4476 -266.405 586.684
97 1 -24.783 -54.1112 -19.0854 980.471 832.997 903.032 71.0538 76.9583 -8.09877 -800.439 222.341
102 2 -21.104 -54.201 -17.0895 -146.218 -498.159 -587.787 -40.2906 -102.651 85.1955 -265.928 470.846
2593 1 -19.944 -54.12 -18.1831 675.07 961.262 975.802 0.766132 48.476 -45.892 -799.383 315.671
99 1 -22.6883 -54.0543 -16.7326 916.497 697.619 1024.09 27.358 0.200658 -6.17873 -807.058 292.223
203 2 -24.6173 -52.5786 -19.4699 -504.102 -562.273 -632.4 7.56254 -38.5849 -73.2623 -259.564 181.992
2699 2 -19.9135 -52.5741 -18.7278 -508.878 -427.924 -446.506 14.7193 16.2312 -104.605 -258.461 199.153
108 2 -22.9743 -52.5475 -16.2994 -450.463 -390.4 -637.134 50.0506 9.74119 186.472 -256.716 402.221
2692 1 -19.7086 -51.5443 -19.9078 971.676 719.47 1166.76 -72.9171 197.856 95.4381 -816.686 558.196
194 1 -22.5799 -51.1425 -15.6182 839.756 643.363 1235.86 51.7467 105.002 -106.358 -825.012 590.174
2693 2 -21.1574 -51.2361 -14.874 -230.174 -402.063 -466.044 -36.6752 244.739 57.4278 -255.148 488.117
199 2 -24.263 -50.1139 -20.1609 -517.464 -510.717 -613.795 -42.935 -0.5509 187.479 -254.409 347.781
2695 2 -19.9447 -50.0807 -19.2755 -507.379 -259.995 -548.007 -22.7562 -29.8851 295.507 -244.338 582.328
200 2 -22.6652 -49.9711 -16.7018 -488.381 -216.482 -453.31 -70.6361 26.1527 -100.714 -256.959 336.264
2704 1 -19.5878 -51.4174 -14.387 976.854 845.076 971.779 16.8869 87.7911 -197.335 -816.542 396.892
2601 2 -18.4594 -54.4998 -17.7553 -347.732 -562.553 -652.561 -20.0642 -135.274 33.969 -270.233 364.899
196 1 -24.5281 -51.6185 -20.7128 717.375 657.681 1226.18 33.7258 -13.8451 168.968 -816.51 618.433
2698 2 -18.5981 -51.1848 -15.6494 -196.349 -428.167 -445.345 8.74631 -184.054 22.7784 -259.079 401.783
2782 2 -18.2126 -51.6351 -20.4845 -330.038 -531.797 -712.091 59.7462 -47.5959 -31.1119 -260.765 360.551
2500 1 -20.1754 -61.2993 -20.6681 819.072 635.922 627.617 -115.17 -3.74222 84.9168 -796.82 310.807
202 2 -23.6534 -50.9727 -14.4301 -562.974 -483.106 -451.675 50.4095 -160.633 -34.7769 -249.812 313.908
2594 1 -16.913 -56.8417 -15.3566 932.038 859.947 896.909 -5.73483 -72.0327 -94.4107 -816.3 215.183
5093 2 -15.7625 -56.9049 -14.1966 -233.644 -635.22 -532.043 49.239 188.649 61.0133 -249.879 505.65
5090 1 -12.3139 -56.6511 -14.6821 858.369 966.055 997.944 -32.1916 -59.1131 -126.012 -816.687 277.987
2600 2 -16.7869 -55.4374 -16.0876 -512.821 -457.067 -444.75 159.592 -59.3999 -67.8137 -261.357 323.631
5096 2 -12.5602 -55.3581 -15.6074 -582.256 -270.916 -442.674 101.367 -52.4079 -50.2356 -261.438 345.824
5095 2 -13.8679 -54.9301 -20.0225 -550.694 -603.647 -619.068 -60.9541 40.4335 85.1558 -255.092 204.117
2598 2 -15.7354 -54.5039 -18.3485 -82.119 -436.211 -473.922 237.236 -217.113 -101.685 -256.377 693.854
5097 2 -13.3545 -53.9268 -17.5924 -330.436 -609.058 -416.779 -2.28652 112.746 78.7682 -261.58 343.208
2595 1 -16.9707 -54.3728 -17.2772 693.69 892.54 1097.32 -157.277 -100.428 -51.5452 -809.143 484.389
5091 1 -12.3186 -53.9632 -16.3501 1105.74 682.057 845.069 -29.7109 44.3096 -87.2743 -810.996 410.374
5089 1 -14.2984 -53.8768 -18.8744 840.644 983.957 898.616 2.02681 -126.184 -37.8701 -812.688 260.141
2604 2 -16.8468 -52.8333 -16.7629 -512.553 -326.539 -525.716 7.05752 -19.5663 190.278 -256.509 383.586
5100 2 -12.5347 -52.7111 -15.4289 -637.198 -514.25 -636.976 44.3991 -36.4218 -24.6691 -258.572 163.732
5195 2 -14.3286 -52.4507 -19.5652 -425.292 -454.06 -311.396 127.898 5.85722 -210.358 -261.671 446.099
5186 1 -12.3086 -51.1577 -15.1679 799.265 717.979 1111.3 -198.437 13.0733 -160.34 -806.131 570.181
2690 1 -17.054 -51.3693 -16.1431 973.435 799.279 1009.26 -104.425 65.5073 -32.3034 -818.678 294.229
5189 2 -16.0641 -51.1498 -14.8932 -210.403 -562.183 -317.123 19.3627 205.036 89.8764 -261.085 499.073
2696 2 -16.7598 -50.2879 -17.2922 -498.869 -580.235 -481.35 15.8748 0.190304 -87.3547 -254.378 178.889
5192 2 -12.5242 -50.2787 -16.5113 -483.255 -143.426 -290.61 17.8853 141.14 -181.609 -266.046 496.786
5191 2 -13.8661 -50.0104 -20.304 -625.469 -626.317 -512.175 3.97669 -2.88795 113.087 -261.247 226.65
5094 2 -10.7783 -53.8659 -16.9233 -232.529 -506.967 -485.459 68.5894 -131.694 45.3455 -262.723 377.079
5188 1 -14.2962 -51.4224 -20.8542 641.289 741.889 1157.99 -194.2 -113.662 -40.1463 -804.989 617.945
7685 2 -10.8525 -51.1025 -14.5604 -63.8345 -554.938 -484.064 -154.073 66.58 -29.105 -266.131 546.31
5194 2 -13.5678 -50.7891 -14.171 -121.455 -557.89 -507.733 154.814 -183.567 -40.131 -258.394 590.699
7589 2 -10.7384 -56.7724 -14.4672 -294.332 -666.107 -561.26 -91.8544 -37.9114 42.8414 -251.798 381.261
5417 2 -15.9713 -41.6611 6.59257 -255.185 -715.14 -594.722 110.251 -95.0594 56.5643 -250.514 493.807
4921 1 -20.0576 -64.6829 -3.91509 1305.28 1266.06 776.14 -222.12 221.236 -160.761 -835.017 795.71
193 1 -24.4701 -48.635 -19.7115 1178.56 557.372 905.367 33.0012 -45.3951 74.4852 -820.783 562.939
2689 1 -19.8151 -48.5107 -18.7608 633.733 960.879 1124.46 40.0214 120.519 18.458 -828.755 486.518
195 1 -22.4934 -48.4402 -17.2706 909.98 1126.14 710.338 29.3345 -78.5407 -118.085 -825.045 438.926
198 2 -20.9316 -48.272 -17.6868 -263.043 -587.259 -668.282 63.0281 -35.6983 -33.1419 -253.563 396.214
201 2 -23.4233 -48.2531 -18.5213 -361.403 -581.285 -427.915 10.2073 120.851 33.4078 -258.583 292.613
204 2 -22.7355 -47.3786 -16.1039 -674.63 -670.684 -423.75 41.3357 48.0405 103.672 -245.461 325.975
2795 2 -20.1151 -47.6144 -20.0711 -496.251 -714.266 -454.054 -12.5567 25.0853 -103.887 -246.661 305.367
290 1 -22.4063 -46.4725 -14.8298 735.197 842.431 998.763 -13.9304 19.5089 -230.703 -820.313 462.708
295 2 -24.2462 -45.1583 -20.5429 -542.105 -368.76 -271.894 -4.28594 5.45776 201.754 -254.654 422.47
2791 2 -20.0775 -45.1829 -19.6844 -559.681 -420.971 -268.14 -8.64283 28.7884 167.598 -247.26 388.298
296 2 -22.7627 -45.059 -15.5301 -454.436 -578.375 -383.131 -45.6358 32.7664 -311.513 -248.475 574.346
294 2 -21.0293 -44.3076 -17.3385 -450.256 -653.475 -526.784 -50.5573 -116.694 81.3464 -250.258 316.188
297 2 -23.4931 -44.4884 -18.0243 -345.803 -512.742 -190.664 6.89233 255.926 87.5357 -248.034 545.399
291 1 -22.4889 -44.0565 -16.7723 852.491 829.097 976.725 157.21 47.5838 -5.18087 -830.085 316.079
2785 1 -19.8893 -44.0739 -18.4445 754.598 842.927 974.91 78.1723 8.34611 241.695 -826.925 480.282
289 1 -24.5103 -44.2027 -19.2597 1046.5 898.105 979.15 -1.04036 -11.6625 -61.8971 -825.089 168.725
2891 2 -20.2184 -42.6546 -19.0012 -550.672 -570.275 -626.705 -68.941 89.0947 -10.8429 -260.052 207.605
300 2 -22.6933 -42.5652 -16.4079 -548.44 -547.127 -574.157 -33.5456 16.3789 51.1799 -254.133 112.853
395 2 -24.349 -42.7076 -19.8183 -531.74 -523.362 -614.127 -16.6758 34.7655 -65.7856 -255.834 158.087
2793 2 -18.4126 -44.2186 -17.9582 -457.972 -622.847 -581.323 -76.3737 -24.9335 -32.4522 -252.921 211.152
2794 2 -18.184 -46.8118 -15.0211 -163.286 -645.702 -659.189 -39.0459 -39.7847 59.1893 -251.762 509.162
2789 2 -20.8751 -46.6569 -14.5128 -312.405 -444.392 -655.304 -34.5303 -72.6852 101.171 -266.16 373.999
299 2 -24.2994 -47.7142 -20.9768 -525.115 -495.659 -512.065 -75.4582 66.202 -49.6656 -255.789 195.662
2788 1 -19.9063 -46.2588 -20.8428 983.055 814.738 930.492 61.6483 9.16401 28.4929 -839.434 190.617
2697 2 -18.291 -48.4092 -18.3408 -496.828 -529.729 -688.313 -169.969 -119.564 -57.5625 -253.149 413.455
2974 2 -18.4353 -41.8209 -20.6995 -426.782 -599.173 -535.258 60.4678 -205.259 -69.9945 -252.365 418.146
388 1 -24.4131 -41.6266 -20.9459 780.621 724.229 1114.55 46.9405 41.0474 115.227 -824.487 430.134
2691 1 -16.8296 -48.8268 -17.8987 660.734 862.637 887.636 -61.5662 24.2206 -70.906 -832.832 273.223
5187 1 -12.3404 -48.757 -17.1075 1106.43 1091.87 701.053 -94.0239 -161.756 -151.786 -806.305 576.862
2694 2 -15.7687 -48.6909 -19.0945 -382.953 -556.327 -548.355 5.98358 -144.045 38.6829 -249.294 309.165
5185 1 -14.2447 -48.6299 -19.6385 986.16 630.2 833.334 -39.5902 9.9203 116.424 -819.56 375.931
5193 2 -13.385 -48.354 -18.2855 -490.842 -479.06 -201.689 -16.4473 192.004 -61.2481 -256.143 450.559
5196 2 -12.5063 -47.7295 -15.9047 -603.969 -539.114 -485.21 -32.4127 -47.5047 83.0271 -263.971 203.003
2700 2 -16.5265 -47.806 -16.7375 -703.304 -660.941 -633.854 18.4227 -94.7809 11.0626 -245.95 178.917
2786 1 -16.686 -46.7155 -15.6136 1089.53 856.462 896.079 -52.9675 142.569 -194.24 -831.269 478.787
5282 1 -12.2155 -46.6381 -14.8091 714.782 822.717 906.856 35.7433 24.2728 -144.803 -818.07 310.347
2792 2 -16.6479 -45.3119 -16.3796 -584.211 -427.007 -489.544 -72.5528 70.2855 -107.699 -252.183 290.176
5288 2 -12.539 -45.2315 -15.529 -538.076 -484.658 -451.745 -1.9339 -45.3225 -133.587 -253.699 255.744
5287 2 -14.169 -44.904 -20.5856 -542.991 -265.143 -210.373 -59.9807 13.2977 299.685 -251.078 613.33
5289 2 -13.354 -44.518 -17.9813 -231.986 -485.182 -30.8957 -33.8129 344.206 40.2922 -253.673 720.551
2790 2 -15.8424 -44.3064 -18.6234 -442.027 -629.112 -589.247 56.6471 -107.785 -5.14982 -251.067 271.46
2787 1 -16.8807 -44.1457 -17.451 686.491 929.625 947.533 4.55946 97.585 -73.5476 -831.645 329.617
5283 1 -12.316 -44.1913 -16.7201 1028.35 930.311 1057.57 98.1324 41.5398 121.836 -816.248 303.197
5281 1 -14.3647 -44.0779 -19.2178 1020.55 946.06 985.067 45.0453 74.7218 -41.0362 -822.068 179.036
2796 2 -16.7496 -42.6294 -16.9681 -578.714 -294.964 -572.011 -44.3326 4.01548 8.76529 -252.326 291.259
5387 2 -14.1452 -42.5293 -19.5833 -564.782 -427.654 -579.961 -21.9473 -13.3715 -109.362 -253.868 242.852
5292 2 -12.5387 -42.6809 -16.1801 -504.023 -294.684 -555.612 -70.0957 33.2982 70.0095 -258.519 300.091
5285 2 -15.5267 -46.9015 -14.4393 -102.012 -471.894 -4.48044 29.7577 337.269 91.0622 -248.968 742.419
5291 2 -14.156 -47.4982 -20.7017 -603.851 -616.207 -497.968 14.97 22.7197 3.44805 -261.363 122.183
5286 2 -10.8029 -44.25 -17.3103 -199.413 -547.295 -492.242 36.1255 -151.159 -5.44159 -262.216 421.25
5190 2 -10.8675 -48.6204 -17.8171 -228.19 -520.832 -332.035 115.033 -210.763 -1.08688 -261.878 488.874
2421 2 -23.4442 -64.4276 -11.5794 -199.108 -508.012 -326.585 25.9552 198.836 58.2472 -259.841 450.666
2415 1 -22.0844 -64.6016 -10.7453 1057.23 897.437 747.881 -9.63124 131.029 206.48 -821.629 501.482
4917 2 -18.3544 -64.2147 -11.7059 -563.198 -547.66 -361.876 -27.085 105.248 70.7506 -254.503 296.805
106 2 -23.3763 -57.0747 -13.889 -412.317 -512.512 -449.127 24.5468 -223.102 68.0331 -261.879 415.599
10 2 -23.8134 -60.6091 -13.7896 -425.299 -504.124 -599.258 130.184 -100.163 -14.7126 -260.281 323.038
2424 2 -21.86 -63.4915 -9.59982 -532.802 -510.057 -160.84 -7.51719 -60.4967 366.487 -242.854 737.902
21 2 -23.842 -59.8865 -10.6341 -182.846 -494.804 -476.194 -33.1236 144.925 57.5467 -251.502 409.994