ITEM: TIMESTEP
1080000
ITEM: NUMBER OF ATOMS
29952
ITEM: BOX BOUNDS pp pp pp
-2.5615833775063237e+01 3.5601128117061187e+01
-9.7359911278628331e+01 1.0734520561282707e+02
-2.1035324467156940e+01 3.4903177627851115e+01
ITEM: ATOMS id type x y z v_StrAtomXX v_StrAtomYY v_StrAtomZZ v_StrAtomXY v_StrAtomXZ v_StrAtomYZ c_PEAtom v_VMS
2408 2 -21.924 -65.7092 -15.9839 -455.015 -10.2412 -545.391 -208.604 -19.405 -215.164 -270.17 718.854
4985 2 -20.5811 -65.7157 -18.9656 -560.05 -478.539 -592.6 16.1813 -67.6073 -98.8884 -286.353 232.79
2407 2 -23.6013 -65.7509 -20.1515 -550.58 -605.852 -290.367 -21.7145 -113.885 34.6326 -267.853 359.264
2416 1 -25.0294 -67.0338 -14.8877 496.063 1011.55 1260.21 -81.82 -97.0065 52.035 -747.862 715.663
2402 1 -22.0882 -67.3703 -16.0931 657.441 1009.76 1038.62 -52.1185 290.222 258.154 -762.394 771.944
2486 1 -20.9125 -67.2935 -19.0136 1192.29 754.138 1232.41 -27.6488 30.2747 21.5132 -752.905 466.475
2410 2 -23.6525 -67.3852 -15.6612 200.079 -529.789 -554.923 -377.843 -267.05 -73.8869 -282.905 1100.14
2316 2 -21.7621 -67.6292 -17.6093 -493.178 -484.597 -118.408 61.0025 -225.011 -213.821 -278.525 661.454
4912 1 -19.3713 -67.6722 -14.7319 307.54 878.19 1127.45 158.847 167.384 -47.6195 -726.69 834.606
2494 2 -21.8488 -67.4816 -20.4234 61.324 -440.146 91.12 17.4199 666.09 -143.807 -271.834 1288.91
4904 2 -18.3221 -67.9191 -16.1124 -76.2262 -661.331 -311.191 -326.143 27.3187 71.3847 -317.727 772.471
4901 2 -20.8235 -67.9973 -15.1971 139.508 -452.608 -479.964 -75.0932 180.363 -166.888 -291.35 752.072
2400 2 -19.4129 -67.8993 -18.5864 166.398 -480.268 -320.213 -115.829 434.269 -118.143 -285.761 994.074
4900 1 -18.0117 -67.769 -17.8025 978.114 761.151 969.966 144.338 -174.435 415.467 -747.676 846.754
4906 2 -18.2512 -68.7109 -14.0579 169.863 -326.637 -860.747 -234.378 -75.0742 -65.7572 -265.326 995.817
7394 1 -11.7559 -67.2378 -15.9958 857.895 217.069 1612.42 -30.3167 104.266 446.784 -757.698 1448.34
4903 2 -17.4588 -66.2642 -17.8664 -409.076 -355.411 -623.673 230.332 -33.3474 -112.283 -283.183 510.653
7400 2 -12.1831 -66.488 -17.344 -448.013 -132.764 -648.402 -109.267 272.107 -372.554 -275.372 936.506
7402 2 -13.0211 -66.9084 -15.0672 86.062 -468.226 -907.837 -5.95498 -146.592 99.3538 -268.463 915.615
7397 2 -15.7809 -67.6499 -14.8223 66.4978 -482.934 -668.713 197.73 30.9092 -58.8039 -292.844 754.316
4898 1 -17.0634 -68.5795 -15.1154 313.127 974.74 1324.37 423.651 -2.22467 98.4333 -730.588 1165.68
4990 2 -16.7055 -68.7297 -17.8951 174.232 -404.93 -685.092 -454.637 194.596 -210.757 -258.97 1201.3
7486 2 -11.7177 -68.888 -16.2283 139.144 -177.014 -1210.37 -139.433 -32.2444 -51.0178 -303.237 1250.49
7396 1 -13.1192 -69.9587 -15.7733 432.146 207.851 1950.38 165.497 0.0976496 76.7681 -733.913 1672.04
7481 2 -14.2613 -70.0853 -16.8664 132.194 -57.8723 -768.829 -99.1058 440.349 -152.969 -274.619 1165.38
4812 2 -16.5211 -69.9213 -15.8392 -509.574 -37.2743 -719.488 -245.357 -133.423 264.623 -257.881 900.197
7478 1 -10.5675 -70.0091 -15.5084 465.396 198.232 1981.06 25.9554 -193.889 22.2223 -732.102 1699.95
4982 1 -15.8848 -70.1507 -17.3646 932.894 274.875 1608.2 118.672 53.878 -164.046 -814.472 1210.41
7392 2 -11.8746 -70.8929 -15.4521 214.472 -594.708 -972.38 -133.484 -8.02725 39.1859 -272.495 1077.62
4896 2 -16.2973 -71.1652 -18.3382 -318.362 -222.031 -604.514 -46.0598 -34.7813 -127.503 -170.48 421.299
7399 2 -13.7423 -69.0943 -14.5659 -493.483 -264.195 -676.559 -304.402 -258.886 205.027 -272.093 856.284
7408 1 -14.2971 -67.6022 -14.2806 603.369 703.666 1117.8 109.475 144.481 -280.323 -777.496 746.611
2401 1 -24.3279 -64.7745 -19.1221 587.882 958.795 744.929 65.0938 132.739 217.849 -798.375 558.511
2409 2 -23.395 -64.4554 -17.8415 -473.415 -555.978 -431.043 -96.6755 -12.682 -125.157 -271.351 296.014
4897 1 -20.1726 -64.2186 -18.7575 580.029 517.763 916.89 -21.6937 190.576 403.738 -772.997 858.901
2403 1 -22.287 -64.2763 -16.6952 932.958 564.885 891.546 48.3335 283.79 -305.422 -777.029 806.484
4905 2 -18.6231 -64.1151 -18.3917 -589.544 -514.307 -698.421 130.504 66.0169 -97.0238 -270.199 343.68
2406 2 -20.9484 -63.7306 -17.4425 -514.938 -400.563 -360.366 19.7255 -141.002 -61.8061 -275.354 302.601
11 2 -24.5794 -63.4644 -19.9685 -422.113 -500.145 -503.925 73.7041 -72.1352 -157.701 -269.253 336.027
2507 2 -20.3465 -63.3232 -20.0464 -541.11 -428.408 -431.226 97.6684 -138.851 -177.802 -277.864 440.102
2412 2 -22.8089 -63.2201 -15.699 -598.054 -529.917 -849.415 -37.5818 -161.211 -69.5909 -270.271 426.245
2501 2 -21.043 -61.8935 -14.5572 -498.908 -476.19 -699.767 -67.5359 -152.068 56.8885 -262.974 371.739
2 1 -22.496 -61.7853 -15.1273 556.172 644.088 1003.1 -75.5495 339.972 -204.411 -802.838 810.802
1 1 -24.0894 -59.5587 -19.6241 971.545 715.851 908.801 80.4759 -182.452 40.0889 -805.093 421.176
2497 1 -19.5341 -59.547 -18.8769 617.702 713.856 1067.2 101.093 -13.3575 13.3698 -791.388 446.99
8 2 -22.6245 -60.6538 -16.2969 -488.457 -359.431 -428.371 -7.86451 -12.401 -119.906 -267.116 237.244
2503 2 -19.9547 -60.8031 -19.8366 -498.888 -257.147 -348.519 -4.56129 -65.6084 199.158 -274.604 420.318
7 2 -23.9234 -60.9374 -20.4572 -403.446 -157.185 -435.166 -23.0692 -8.46038 158.233 -268.125 382.604
3 1 -22.0742 -59.4707 -17.1945 938.982 756.964 953.434 4.59119 143.836 -16.5469 -798.155 314.517
6 2 -20.538 -59.6014 -17.5552 -291.058 -427.946 -377.776 10.2023 -287.973 14.06 -268.035 513.886
9 2 -22.8754 -59.3689 -18.6446 -474.116 -463.86 -318.231 -67.732 123.279 -30.8359 -265.088 291.574
2506 2 -18.3866 -62.4431 -15.3726 -339.789 -376.985 -507.048 -39.494 -204.552 55.2114 -273.159 403.095
2512 1 -19.5178 -62.3151 -14.2104 987.639 484.151 1004.18 36.6125 -41.3663 -171.824 -805.155 599.855
2505 2 -18.0419 -59.7529 -18.5142 -491.737 -490.069 -602.342 12.3916 -72.9957 36.8483 -277.585 181.494
9893 2 -10.2953 -67.093 -15.2599 5.91665 -358.1 -617.486 -189.129 306.306 -86.9074 -264.251 840.029
10 2 -23.5139 -61.422 -13.9825 -429.497 -510.667 -540.778 65.2145 -244.749 65.8726 -256.19 464.135
5226 2 -10.3416 -49.947 2.69397 -528.885 -777.987 -512.281 114.695 -24.3744 -42.6707 -244.155 336.413
2788 1 -19.714 -46.6895 -20.8897 910.641 867.125 692.588 23.4193 19.0147 -273.221 -809.239 516.363
7401 2 -13.7951 -65.1879 -19.089 -108.498 -496.88 -126.012 31.3663 347.449 -132.446 -283.94 749.724
7395 1 -12.4247 -65.1311 -18.1867 737.08 1005.94 929.07 43.9185 38.3319 553.186 -779.545 992.857
7398 2 -11.2162 -65.028 -19.2019 -445.315 -656.175 -509.335 -137.304 -82.5296 -102.388 -274.389 378.816
7393 1 -14.8881 -64.6787 -20.1709 812.727 1056.51 983.796 54.8896 52.8464 429.311 -753.205 785.706
4899 1 -17.1975 -64.7062 -18.0488 479.016 634.147 1174.92 -115.572 163.968 158.309 -777.968 772.211
4902 2 -16.2711 -64.4315 -19.3354 -269.627 -479.119 -389.296 66.5353 -255.844 -236.107 -277.778 640.333
4908 2 -16.6677 -63.9494 -16.718 -442.852 -259.343 -476.316 14.7943 -87.6019 153.489 -266.724 367.821
7404 2 -12.3348 -63.8728 -17.0993 -364.096 -113.416 -119.9 103.593 151.209 301.654 -268.345 659.568
5003 2 -14.3132 -63.2858 -20.8153 -391.348 -413.446 -559.084 67.5328 -99.7315 -144.086 -287.752 361.553
7493 2 -10.7071 -63.257 -15.023 -314.671 -482.95 -530.605 100.439 209.286 98.8594 -259.909 479.159
4994 1 -12.0085 -62.8591 -15.8187 661.525 763.238 1254.26 -84.5982 -26.4499 -63.3102 -804.253 580.5
5002 2 -13.2383 -62.8034 -14.7961 -420.684 -460.888 -460.484 -14.1819 -119.441 135.856 -267.273 316.816
4997 2 -15.8831 -62.4709 -14.7865 -192.921 -519.682 -549.041 -23.3959 165.319 -104.73 -255.779 483.493
2498 1 -16.9296 -62.5323 -15.965 722.432 735.977 881.927 -115.021 21.0635 -55.4968 -803.363 271.518
5000 2 -11.7955 -61.3861 -16.4686 -433.017 -103.769 -525.713 116.074 -24.9955 -94.3053 -268.584 465.286
2504 2 -16.6375 -61.4042 -17.0651 -488.64 -300.346 -459.754 67.0831 -33.2157 -92.9242 -267.966 271.229
4993 1 -13.8626 -59.586 -19.287 729.546 775.694 994.2 -201.334 -29.2735 -65.4915 -790.358 443.849
4995 1 -11.7547 -59.8145 -16.8426 963.017 940.437 904.11 -58.0248 47.6021 -34.8064 -796.949 152.259
2499 1 -16.6336 -59.9628 -17.8101 673.425 894.526 1085.08 -75.6004 52.7026 86.5795 -791.401 418.684
2502 2 -15.3349 -59.9144 -18.7542 -261.351 -459.173 -615.848 78.9143 -123.207 62.862 -271.319 413.22
4999 2 -13.472 -60.9023 -20.2065 -355.525 -245.627 -582.903 60.1094 102.27 163.237 -268.904 459.263
5001 2 -12.8702 -59.5789 -18.0307 -280.764 -531.852 -363.972 -53.4382 193.917 -129.006 -265.502 469.449
2603 2 -19.7559 -58.1606 -19.5891 -618.286 -351.869 -548.697 -18.865 17.6557 -6.99677 -266.568 243.784
107 2 -24.2546 -58.3516 -20.6197 -521.497 -458.941 -492.143 -24.4246 -36.2055 -42.5664 -268.024 118.729
12 2 -22.3725 -58.1428 -16.2986 -543.652 -399.248 -449.096 -98.3818 -65.4474 194.219 -262.375 413.751
2597 2 -20.6396 -57.1223 -14.6391 -322.621 -436.2 -586.303 -69.2987 54.8425 35.9436 -259.74 282.463
98 1 -22.193 -57.1353 -15.0838 932.969 853.598 943.797 86.2619 169.192 -102.948 -810.568 383.762
2596 1 -19.6368 -56.8203 -20.4795 1005.38 592.523 892.236 -24.5643 54.587 -168.07 -806.363 481.697
2599 2 -20.0781 -55.6 -19.5837 -561.97 -395.7 -531.89 47.3313 -66.2003 106.755 -264.137 278.58
103 2 -24.5266 -55.749 -20.3903 -585.705 -323.797 -491.955 -35.1912 117.126 132.637 -254.264 387.917
104 2 -22.6639 -55.6696 -15.6312 -562.667 -321.178 -509.261 -99.8783 -31.3197 -129.15 -255.038 362.189
105 2 -23.4002 -55.0869 -18.0331 -395.833 -562.342 -545.12 -7.12309 -9.5494 86.3817 -264.751 219.01
97 1 -24.5685 -54.8609 -19.0825 677.032 890.372 716.251 86.6727 162.416 -78.0307 -822.015 398.277
102 2 -20.7786 -54.878 -17.1962 -102.787 -558.502 -609.48 47.6159 -56.8892 28.3788 -258.626 502.428
2593 1 -19.6607 -54.6744 -18.3207 495.061 840.342 1003.66 8.65877 39.4699 -36.8916 -799.878 459.638
99 1 -22.3835 -54.7135 -16.8692 1007.6 684.837 894.973 78.8988 107.84 -1.52888 -810.348 366.166
203 2 -24.4878 -53.321 -19.5719 -517.374 -513.285 -553.224 29.0476 -108.012 -58.0941 -253.873 221.595
2699 2 -19.7352 -53.1318 -18.7986 -415.037 -272.614 -362.803 -26.2845 2.75109 -164.389 -267.192 314.23
108 2 -22.5316 -53.1838 -16.4487 -554.773 -371.514 -605.375 4.88592 -91.5182 106.813 -260.229 323.794
2601 2 -18.2331 -55.1272 -17.9153 -548.831 -430.707 -657.249 23.0599 4.99456 25.1154 -270.045 205.126
2602 2 -18.0318 -57.6613 -14.9114 -82.3257 -456.91 -307.517 69.921 -289.787 18.7935 -251.204 611.823
5004 2 -12.2032 -58.8079 -15.6348 -516.576 -158.824 -541.071 -88.174 -7.70724 178.821 -261.296 506.737
2508 2 -16.4724 -58.7732 -16.6636 -555.431 -271.483 -443.751 57.7482 13.8028 156.721 -260.371 381.638
7589 2 -10.4741 -57.2581 -14.4473 -397.168 -608.015 -614.128 20.6032 78.7646 152.874 -252.786 368.483
5099 2 -13.8834 -58.3083 -20.2162 -461.747 -287.096 -519.283 21.6925 25.6887 -38.2197 -273.589 227.235
5093 2 -15.4155 -57.7261 -14.5422 -306.865 -646.057 -331.603 35.0977 165.946 67.7219 -253.43 455.346
2594 1 -16.5533 -57.5669 -15.6499 1108.17 678.014 717.489 -5.50397 -114.552 -102.08 -824.368 490.234
5090 1 -12.0113 -57.4277 -14.8515 743.678 904.765 907.467 83.7259 59.8504 -229.209 -817.464 464.518
2600 2 -16.3836 -56.1922 -16.381 -540.836 -383.703 -472.812 -3.32681 3.16982 -54.3 -258.854 165.946
5096 2 -12.3367 -56.1008 -15.7089 -663.168 -59.6247 -501.151 58.4821 -71.5349 -4.25128 -259.263 564.266
5095 2 -13.6485 -55.6937 -20.2069 -562.922 -477.968 -653.783 -40.9552 -11.5957 60.9746 -267.4 199.452
2598 2 -15.7149 -55.0846 -18.6776 -353.058 -438.934 -571.522 37.0917 -195.645 89.9181 -263.09 423.738
5097 2 -13.3642 -54.9961 -17.7596 -551.105 -543.213 -610.703 -66.4846 -15.3763 -25.5484 -262.631 141.466
2595 1 -16.7083 -54.9781 -17.4423 639.478 695.942 1213.44 -12.5705 120.908 -117.758 -801.684 621.407
5091 1 -12.1744 -54.8494 -16.7272 826.13 873.284 608.874 14.2335 -90.0688 -184.508 -812.097 432.138
5089 1 -14.1803 -54.7072 -19.0898 858.8 787.201 836.551 -2.84728 -43.3123 -252.287 -795.769 447.914
2604 2 -16.5711 -53.5792 -16.7045 -446.513 -380.578 -541.456 -53.153 -48.0225 111.789 -270.048 269.27
5100 2 -12.221 -53.3687 -16.1974 -527.983 -323.248 -487.351 37.6969 78.829 94.8379 -262.26 291.781
5195 2 -14.1937 -53.2344 -19.7499 -526.097 -307.687 -389.161 22.0886 53.1341 -185.454 -268.813 386.858
5094 2 -10.784 -55.0002 -17.4721 -480.121 -576.612 -502.548 80.2854 -13.8241 40.1159 -264.158 179.966
2782 2 -18.1483 -52.5976 -20.9013 -379.34 -471.939 -342.922 -30.4265 -177.227 49.1868 -267.128 342.836
196 1 -24.4467 -52.239 -20.7189 706.058 687.397 1050.15 38.6549 -62.2604 32.197 -827.036 379.988
2704 1 -19.4253 -52.0894 -14.2678 1032.64 1049.68 913.83 100.046 5.6604 -82.5717 -817.186 258.858
2692 1 -19.5654 -52.219 -20.1452 1015.12 653.516 1028.58 -57.9582 -9.33018 -65.6275 -797.132 398.832
2693 2 -20.9137 -51.9288 -14.8693 -364.075 -528.7 -404.559 -73.8314 236.283 22.1423 -252.101 455.4
2698 2 -18.3275 -51.9456 -15.5097 -178.103 -526.893 -301.044 -16.7484 -299.763 22.736 -253.338 604.859
194 1 -22.3277 -51.8131 -15.6667 772.188 666.695 1085.19 -2.92367 128.63 -6.01976 -822.274 438.049
202 2 -23.4234 -51.7158 -14.4861 -469.288 -543.411 -431.681 28.1917 -143.222 57.6847 -249.936 289.137
199 2 -24.1384 -50.7963 -20.1422 -587.343 -417.641 -572.793 -71.9844 -10.506 130.115 -250.208 305.299
2695 2 -19.568 -50.691 -19.7634 -502.529 -420.914 -572.845 -48.0109 -8.82158 115.942 -267.567 254.599
200 2 -22.358 -50.5108 -16.5277 -541.509 -428.735 -599.292 9.40962 -17.2553 57.7217 -262.749 183.651
2689 1 -19.4508 -49.2818 -19.0085 853.942 805.255 1143.14 93.9071 -2.22515 -16.0461 -805.81 356.835
198 2 -20.5887 -49.1973 -17.8498 -102.617 -545.901 -497.511 -110.741 -198.256 127.175 -260.873 616.944
193 1 -24.2618 -49.2552 -19.6145 869.014 850.139 874.607 55.6026 6.25893 105.082 -808.028 207.393
201 2 -23.1585 -48.9852 -18.5063 -291.061 -555.216 -509.372 -58.4094 64.1306 -60.9467 -266.844 305.755
195 1 -22.1086 -49.1248 -17.3 952.571 921.932 718.508 -30.3505 48.7497 -135.897 -811.248 337.416
204 2 -22.3661 -47.9092 -16.3022 -558.932 -599.348 -416.075 -43.7202 -84.0139 79.5097 -257.785 271.459
2795 2 -19.8074 -48.0698 -20.0173 -504.918 -333.555 -355.132 -78.9507 51.7425 -223.905 -257.974 450.85
290 1 -22.2442 -46.9977 -14.993 833.247 692.539 764.815 -11.5332 111.397 -73.3124 -813.439 261.923
2789 2 -20.8138 -47.3038 -14.2777 -396.919 -496.577 -501.49 -47.1653 110.572 83.7823 -263.323 273.598
299 2 -24.0662 -48.3264 -20.9018 -506.105 -596.293 -428.028 -13.9502 -43.6095 0.919608 -262.958 166.022
2697 2 -17.9261 -49.0474 -18.4866 -416.957 -500.44 -561.407 94.6067 18.2639 118.947 -265.835 293.383
2794 2 -18.2728 -47.4704 -14.9916 -245.739 -646.156 -272.759 -53.4936 -317.915 27.2884 -250.073 681.376
2690 1 -16.839 -52.0995 -16.1601 1019.5 882.409 876.467 -81.9404 -81.362 -183.837 -808.317 401.29
7685 2 -10.5592 -51.8597 -14.7202 -322.772 -499.482 -534.091 4.92042 198.93 94.4782 -260.37 429.082
5189 2 -15.7772 -51.8077 -15.0075 -414.988 -585.801 -250.833 18.2896 162.593 65.3057 -260.655 421.035
5186 1 -12.0616 -51.9045 -15.4612 898.402 829.19 1078.01 43.4133 82.414 -8.68736 -805.797 275.205
2696 2 -16.6746 -50.9311 -17.3045 -491.981 -211.419 -454.073 44.0322 -8.64378 -108.655 -263.735 333.129
5192 2 -12.0333 -50.7721 -16.5883 -497.974 -302.551 -416.127 73.4206 25.3356 -102.082 -264.657 279.739
5191 2 -13.8306 -50.6678 -20.4553 -500.718 -361.524 -517.896 5.95339 -18.8383 127.837 -263.074 268.81
5291 2 -13.9956 -48.1281 -20.82 -540.203 -484.763 -326.391 38.5533 -13.6462 -183.429 -253.011 378.01
2691 1 -16.5673 -49.4379 -17.8527 519.203 903.601 990.098 91.9125 62.5681 13.4368 -810.393 475.523
2694 2 -15.3824 -49.2533 -18.8708 -589.167 -460.49 -610.949 15.641 -37.5951 18.9755 -262.295 160.902
5187 1 -11.8962 -49.32 -17.2751 1074.92 975.269 848.445 -100.869 -150.893 -78.7828 -815.225 395.099
5185 1 -14.0083 -49.3011 -19.6628 823.7 714.047 1069.07 -89.6901 14.5072 -75.7348 -814.373 375.643
5193 2 -12.874 -49.1453 -18.5371 -598.111 -471.362 -383.542 6.71017 161.964 -66.2711 -256.216 356.254
5196 2 -12.29 -48.1757 -16.2023 -534.668 -202.944 -384.081 -58.8644 -97.2181 232.597 -256.74 532.745
2700 2 -16.2621 -48.3999 -16.5615 -458.187 -203.105 -276.281 15.4161 16.5352 288.373 -254.903 550.242
2786 1 -16.7864 -47.2438 -15.5637 946.558 1026.18 742.231 -140.205 -57.3144 -31.071 -820.962 368.891
5282 1 -12.1335 -47.0812 -14.9842 805.483 1029.58 930.515 -17.8461 42.4899 -36.8189 -809.538 219.705
5285 2 -15.8274 -47.1502 -14.29 -555.064 -586.718 -553.972 71.0693 7.19589 40.5504 -257.4 145.872
7781 2 -10.6515 -47.3656 -14.4346 -248.677 -469.138 -542.682 -174.474 125.997 -14.0659 -262.449 458.005
5190 2 -10.4337 -49.1273 -18.0116 -412.947 -457.072 -284.995 52.2576 -322.965 -5.82428 -252.541 587.518
5194 2 -13.249 -51.7447 -14.448 -257.092 -516.485 -484.805 37.6029 -125.395 17.8374 -262.246 335.319
5188 1 -14.199 -52.1613 -20.9434 852.095 829.667 988.578 19.7976 5.25369 -11.4118 -802.95 154.405
5200 1 -14.7386 -51.9551 -13.7558 970.924 921.222 908.283 10.5441 -65.1547 -156.899 -810.195 300.336
4915 2 -19.186 -66.2962 -14.0303 -487.261 -329.278 -270.901 14.7041 -112.957 243.651 -289.564 504.592
4913 2 -21.2287 -68.096 -7.33153 -75.8614 -861.187 -76.6136 48.8398 323.443 66.3393 -229.36 974.859
2419 2 -24.7438 -66.114 -13.586 -457.804 -356.79 -188.984 0.315704 12.5303 187.337 -279.594 401.335
2328 2 -21.7693 -66.809 -9.73029 -624.607 -427.675 -214.342 9.79871 -171.361 -300.456 -253.432 696.784
2414 1 -22.1705 -67.1031 -8.22907 877.487 1127.06 778.972 42.1663 139.472 100.91 -803.438 436.831
2422 2 -23.7495 -67.1553 -8.06339 -193.897 -364.421 -587.974 -13.1337 -146.409 -30.4104 -270.859 429.854
4918 2 -18.7188 -67.0579 -7.29325 -429.982 -437.78 -645.283 -18.625 -217.733 -35.7562 -261.053 437.99
2428 1 -25.1294 -67.0839 -7.27639 851.562 1103.44 916.863 179.678 86.0891 -23.487 -801.965 414.727
2420 2 -21.2362 -66.0001 -7.35539 -40.7678 -999.056 -255.202 19.7071 217.251 5.01466 -228.068 949.549
7414 2 -13.5662 -66.9603 -7.92636 229.677 -368.227 -727.726 -26.9556 -66.8134 -28.0312 -259.823 848.295
4910 1 -17.385 -66.9776 -8.13611 637.212 1123.77 1044.88 -107.426 157.664 143.003 -811.035 612.474
7411 2 -14.3181 -66.8632 -12.875 -628.263 -106.589 -439.267 -57.0137 -26.1423 330.895 -262.07 741.314
4916 2 -16.2871 -65.8751 -7.52448 94.3048 -907.67 -536.345 21.5122 54.5901 -46.0081 -221.302 886.823
4824 2 -17.5709 -66.4707 -9.64713 -566.955 -334.656 -290.946 35.3231 -178.855 -322.454 -251.13 691.135
7320 2 -11.5751 -66.5473 -9.641 -566.634 -304.319 -188.826 47.7518 -53.2756 -235.145 -233.141 541.921
7406 1 -11.9666 -66.9178 -8.05921 648.72 1219.62 1275.37 -144.147 -392.519 45.8062 -814.609 944.302
7409 2 -16.1382 -67.9571 -7.76897 40.0201 -945.022 -402.056 119.644 218.83 -88.4247 -230.467 969.71
9905 2 -10.9419 -68.0055 -7.37142 58.4087 -588.997 -462.01 30.4224 400.457 25.579 -227.761 915.907
7412 2 -11.105 -65.8165 -7.226 -122.019 -821.654 -634.766 66.3444 183.951 -23.2126 -228.351 714.141
7420 1 -15.0234 -66.9343 -7.18822 829.37 1185.06 1168.83 -265.05 -87.9485 -13.097 -822.023 596.219
2418 2 -20.5791 -65.5508 -11.851 -699.217 -564.455 -192.794 18.1614 -249.061 44.7841 -258.499 632.043
2415 1 -21.756 -65.5409 -10.7922 919.451 1194.26 544.894 -44.7813 234.034 -56.7914 -826.553 706.225
2421 2 -23.1103 -65.46 -11.6231 -509.957 -634.997 -404.158 -81.311 81.1851 -55.7718 -247.328 298.322
19 2 -25.4152 -61.2682 -12.1508 -573.557 -175.294 -506.181 23.9211 -94.5972 162.261 -258.924 493.83
4909 1 -19.3731 -65.1748 -12.8531 1065.92 772.749 886.12 -56.961 109.576 -111.66 -802.762 385.648
2413 1 -24.5341 -65.1302 -12.3447 792.493 890.766 666.628 100.361 220.845 -103.668 -818.569 496.632
2424 2 -21.7647 -64.261 -9.84277 -575.473 -435.392 -221.338 -22.2724 -108.463 249.798 -250.195 565.159
2519 2 -19.6359 -63.7385 -13.4995 -599.512 -423.932 -523.011 8.3516 -22.942 -80.072 -259.94 210.408
23 2 -24.4306 -63.6059 -12.8923 -594.909 -346.831 -643.172 29.0045 -34.6621 50.4121 -257.121 299.328
22 2 -23.3501 -63.4073 -7.90066 -512.191 -594.709 -511.503 -10.7361 -237.315 -58.5843 -243.636 431.814
14 1 -21.9003 -63.1945 -8.58434 1165.06 1296.36 1212.68 122.551 236.635 -174.282 -842.83 563.4
16 1 -24.8343 -62.145 -13.328 1107.6 614.341 879.598 38.1784 187.951 -242.405 -812.169 685.167
20 2 -21.8154 -61.6605 -9.32424 -605.631 290.545 -362.236 15.943 -132.533 -320.777 -233.763 1003.19
21 2 -23.6283 -60.276 -10.5139 -375.482 -598.376 -445.173 40.0621 35.5173 95.0908 -246.673 273.37
15 1 -22.0389 -60.2417 -10.186 1015.07 1082.19 966.245 38.7623 194.029 -205.966 -837.517 504.857
2509 1 -19.7262 -60.1268 -12.1183 941.731 1025.03 832.461 -12.9117 138.981 -220.839 -820.321 482.427
13 1 -25.0215 -59.9496 -11.2496 840.106 1037.93 773.089 58.6763 340.249 -145.341 -823.043 691.297
2517 2 -18.7641 -60.2041 -10.8011 -353.036 -690.011 -493.394 -54.2323 98.208 -42.6816 -244.409 359.414
18 2 -21.1708 -60.3531 -11.5395 -576.895 -551.047 -378.985 -20.6627 -279.694 62.5615 -255.055 531.441
2515 2 -19.1635 -61.3044 -13.0737 -660.273 -567.706 -513.568 -186.016 -184.626 106.324 -252.381 506.45
2513 2 -20.8608 -63.0854 -7.32264 -605.344 -718.235 129.42 -3.06321 229.556 164.601 -236.707 935.397
2518 2 -18.3691 -63.2175 -7.05746 -453.903 -560.448 -222.088 97.8161 -415.931 183.531 -236.704 859.383
7405 1 -14.3899 -65.4314 -12.0867 993.714 1068.7 859.075 -150.416 34.0405 -242.846 -819.529 531.151
4914 2 -15.6218 -65.3182 -11.0822 -316.95 -561.69 -427.488 -57.1958 -176.459 145.128 -255.778 459.866
4917 2 -18.1083 -65.1239 -11.8374 -484.948 -554.597 -127.909 25.7785 250.584 143.087 -254.157 639.521
4911 1 -17.1343 -65.1454 -10.5257 1110.16 1121.7 745.073 8.86568 106.97 -52.9395 -825.549 424.98
7407 1 -11.6506 -65.1769 -10.5416 714.922 1288.28 722.511 -179.898 -130.986 -103.731 -853.173 710.835
7413 2 -12.9683 -65.1861 -11.3468 -644.521 -616.896 -430.57 157.106 84.9458 104.075 -250.749 410.873
4920 2 -17.3296 -63.9233 -9.54111 -522.402 -598.293 -144.063 94.4508 -77.4854 267.086 -250.481 660.6
5015 2 -14.6325 -64.1888 -13.1243 -583.117 69.3939 -514.194 27.2167 63.7042 -128.158 -253.54 670.237
7416 2 -11.3989 -63.8674 -9.6759 -519.95 -446.916 -469.602 140.998 101.63 161.677 -239.283 416.219
5008 1 -14.5104 -62.7114 -13.8541 1014.84 1050.39 1004.98 -133.183 101.819 -89.4545 -812.049 331.712
5014 2 -13.0523 -63.2568 -7.80394 -357.445 -525.697 -586.819 99.5199 -62.4157 124.132 -244.602 360.492
2510 1 -17.2766 -62.9416 -8.2071 1305.42 972.227 1197.8 -162.5 244.93 -157.982 -847.039 648.696
5006 1 -11.6427 -62.836 -8.41129 932.277 1172.83 1133.91 -66.1304 55.2903 -230.061 -847.969 480.721
5011 2 -14.557 -61.5183 -12.7522 -543.291 -157.765 -399.076 -57.7554 -171.31 291.583 -255.027 683.33
2516 2 -17.5845 -61.5222 -8.88543 -647.901 -310.677 -485.539 107.387 -16.2383 -164.942 -241.221 449.815
5012 2 -11.6733 -61.3882 -9.15714 -552.213 -355.421 -398.465 53.263 -47.0891 -233.712 -243.385 459.496
2514 2 -16.0906 -60.606 -10.783 -347.275 -526.59 -394.19 -20.223 -100.903 133.516 -256.401 333.456
5013 2 -13.4729 -60.4892 -10.7188 -478.415 -591.505 -675.778 72.9701 -36.2635 80.3277 -250.226 262.104
2511 1 -17.4397 -60.2867 -9.9279 1008.17 1291.58 857.449 -133.88 -106.219 -21.8331 -832.272 484.567
5007 1 -11.9581 -60.2425 -10.2624 841.623 1020.92 1083.51 -12.2755 -109.901 -90.912 -831.34 329.8
5005 1 -14.7582 -60.3688 -11.6108 693.355 1025.03 895.015 -108.388 -39.7438 -169.018 -826.917 457.681
5010 2 -10.9316 -60.4484 -11.5209 -117.782 -524.613 -241.809 -16.5087 -280.816 97.4141 -255.093 629.52
5009 2 -15.7264 -62.8447 -7.53194 -20.8829 -620.615 -417.771 91.2949 184.971 162.498 -239.549 697.164
131 2 -24.738 -59.0557 -7.00331 -692.008 -462.827 -515.827 -44.5773 -66.5425 -68.7246 -255.917 276.769
24 2 -21.7386 -58.8571 -9.48265 -577.027 -29.3072 -419.753 -143.457 -127.251 164.744 -250.039 655.995
2615 2 -19.4759 -58.7309 -12.9168 -450.602 -304.076 -404.836 128.588 -39.1384 -81.1389 -263.312 301.346
119 2 -24.8537 -58.5806 -12.0582 -562.225 -116.3 -539.148 63.3678 -85.0916 -9.87 -258.291 472.39
106 2 -23.1394 -57.545 -13.8483 -383.387 -564.134 -405.422 -3.94067 -244.371 36.8915 -259.496 460.927
2711 2 -19.2253 -53.5068 -13.5744 -545.189 -276.239 -359.984 0.654522 -37.6086 -14.579 -266.571 248.408
112 1 -24.5964 -57.4333 -13.196 827.713 990.89 752.576 27.3592 34.897 -166.296 -815.135 365.232
2608 1 -19.291 -57.4482 -13.8403 913.088 692.006 1175.25 -88.376 -37.2133 -137.742 -820.33 509.968
124 1 -24.6652 -57.5034 -7.35619 639.742 892.125 761.777 32.3048 120.818 141.786 -824.101 393.728
110 1 -22.0607 -57.2612 -8.98129 943.846 1153.33 799.49 -108.485 111.091 -32.4872 -822.353 412.869
118 2 -23.5423 -57.225 -8.41637 -641.295 -585.879 -547.883 55.6989 -9.10756 28.7091 -255.607 136.561
2609 2 -20.9266 -56.9842 -7.89634 -312.186 -651.087 -541.487 -20.9354 24.8675 -36.3268 -255.537 311.209
116 2 -21.9484 -56.1804 -10.1557 -602.538 -144.695 -523.355 -16.3921 -30.6046 -7.54625 -249.334 428.28
2611 2 -18.9983 -56.1195 -13.0041 -622.146 -314.279 -704.956 -31.4997 -109.225 64.2503 -250.597 422.238
115 2 -24.7656 -55.9189 -12.6457 -518.663 -379.807 -480.751 -56.845 -60.7256 177.579 -261.153 361.682
111 1 -21.8957 -54.6196 -10.6931 678.586 1017.51 828.844 -50.1336 206.153 -140.179 -824.019 529.629
109 1 -24.7646 -54.5006 -11.9402 697.322 874.092 1069.53 12.6069 195.828 -133.941 -815.846 522.816
2605 1 -19.3503 -54.6656 -12.461 1075.89 778.954 929.285 -60.7367 133.818 -221.65 -820.727 527.547
114 2 -20.893 -54.6823 -11.9098 -348.57 -575.324 -569.314 21.3177 -149.659 145.859 -250.53 427.167
117 2 -23.3358 -54.2769 -11.2058 -428.715 -566.824 -468.83 152.922 119.864 79.4566 -259.673 383.85
120 2 -21.2878 -53.6844 -9.55672 -561.697 -532.341 -568.267 87.6636 11.0047 47.4832 -252.329 176.861
215 2 -24.9529 -53.3797 -13.146 -501.884 -402.768 -281.298 -38.9954 42.0502 -248.759 -250.444 481.797
214 2 -23.0551 -52.8115 -7.9536 -131.073 -568.075 -504.712 129.464 -105.936 -12.545 -251.969 501.715
206 1 -21.6054 -52.4888 -8.55811 903.632 960.995 612.259 -129.575 -95.5543 -229.738 -826.316 583.954
2614 2 -18.2478 -57.0742 -7.5363 -128.404 -614.569 -484.764 19.0638 -188.47 22.4561 -237.711 547.051
2613 2 -18.3074 -54.491 -11.2423 -408.512 -690.967 -480.799 15.6721 83.5688 -17.3138 -250.838 295.256
2705 2 -20.5092 -52.494 -7.43427 -491.371 -708.517 -600.819 -6.22437 -51.0819 -46.2462 -252.932 222.993
2620 1 -19.7683 -57.2834 -6.86991 1124.82 1278.19 745.522 5.715 -132.689 -207.136 -841.133 638.117
5106 2 -10.3108 -54.6506 -12.1395 -299.737 -544.217 -514.959 -108.264 -103.461 199.95 -260.072 490.602
5111 2 -14.7653 -58.8879 -12.2719 -536.14 -145.338 -473.497 64.9347 1.13265 -43.5352 -261.206 387.955
2520 2 -17.3555 -58.7489 -9.2452 -469.259 -167.829 -453.081 9.46248 -44.9358 201.122 -246.197 462.517
5016 2 -11.7522 -58.7534 -9.67427 -499.302 -314.343 -484.466 72.4144 59.2457 148.479 -256.144 352.258
5098 2 -12.944 -57.5513 -13.5696 -331.444 -599.13 -501.596 40.5798 -73.5299 -9.35599 -256.197 276.556
5104 1 -14.5121 -57.5755 -13.1669 1026.34 1083.25 985.205 -150.589 101.945 -35.4739 -811.7 332.048
5102 1 -11.7087 -57.2307 -9.18466 752.171 1064.4 750.185 14.404 -28.4284 -178.537 -830.521 443.607
2606 1 -17.0577 -57.3394 -8.57341 689.941 900.244 1112.28 30.9797 79.1832 -108.072 -849.95 436.472
5110 2 -13.162 -56.8687 -8.70377 -588.099 -659.165 -499.138 51.88 -3.69293 14.0253 -252.002 167.309
5105 2 -15.6592 -57.1989 -7.84964 -446.753 -569.466 -539.839 90.908 32.1777 123.539 -246.333 293.233
5108 2 -11.2754 -56.136 -10.3251 -530.881 -190.085 -477.055 22.3919 49.2289 -139.165 -246.503 409.354
2612 2 -17.1181 -56.1745 -9.69673 -546.583 -420.793 -603.381 -13.1201 -27.3297 -41.485 -240.054 184.7
5107 2 -14.8631 -56.0666 -12.5863 -560.38 67.5618 -489.094 14.68 19.7792 134.73 -254.802 641.019
5103 1 -11.4891 -54.6827 -11.0355 1015.79 994.045 904.517 -151.729 -7.70572 -131.258 -820.487 362.442
2607 1 -17.1524 -54.6483 -10.1772 934.658 958.815 827.401 34.2925 -106.832 -89.4746 -838.164 276.519
5101 1 -14.5884 -54.5714 -12.0054 914.768 922.832 979.737 14.4005 53.8968 -69.1714 -824.029 165.689
5109 2 -13.0402 -54.5311 -11.5739 1.11646 -523.931 -527.001 -41.7293 4.57749 -0.546076 -259.463 531.586
2610 2 -15.739 -54.3252 -10.9305 -203.021 -661.174 -535.712 -23.9498 -148.41 47.6933 -249.81 492.733
5112 2 -11.3537 -53.5567 -9.9217 -616.041 -381.977 -251.739 8.75132 42.6368 237.285 -255.894 526.144
2616 2 -17.3617 -53.7191 -8.89386 -526.987 -314.976 -323.313 -4.62683 -38.3837 233.832 -251.107 460.182
5207 2 -14.8031 -53.3946 -13.101 -524.859 -373.242 -505.732 -50.7712 79.0301 -50.9846 -258.161 233.928
5206 2 -13.0323 -52.6297 -8.18895 -351.395 -593.422 -305.509 58.1193 -194.088 -47.5289 -248.49 449.12
5116 1 -14.0914 -57.2051 -7.46253 882.02 1157.86 758.775 -73.8702 103.303 -204.6 -834.937 547.027
7601 2 -10.6837 -57.0424 -8.00398 -535.375 -703.556 -537.447 55.1435 54.06 118.436 -247.014 296.499
208 1 -24.9175 -51.9608 -13.9149 878.997 1048.28 627.007 -24.8222 -72.9616 -63.7525 -819.791 405.983
212 2 -21.6188 -51.1258 -9.42162 -567.95 -358.706 -557.609 56.3723 -40.733 -42.413 -255.751 248.262
2707 2 -19.0612 -50.8157 -13.3101 -624.659 -179.36 -515.193 61.8325 109.297 193.061 -254.303 566.263
211 2 -25.1709 -50.8524 -12.752 -561.919 -405.136 -327.896 65.9695 9.7142 180.08 -254.399 391.512
2800 1 -19.3409 -47.2025 -13.7477 744.687 923.935 1220.19 78.6088 -19.1354 -114.325 -813.71 481.504
213 2 -23.3047 -50.1223 -11.0448 -424.808 -565.364 -528.645 107.229 40.235 64.6739 -257.012 260.465
210 2 -20.7128 -50.1818 -11.5558 -369.839 -529.449 -656.353 16.0283 17.2641 86.6054 -257.483 293.26
2701 1 -19.2189 -49.8301 -12.0605 957.785 1015.31 722.506 86.6012 112.6 -125.011 -812.779 423.815
207 1 -21.8276 -49.9446 -10.4638 633.579 968.893 915.823 -7.99635 123.621 78.678 -813.565 402.574
205 1 -24.7733 -49.8001 -11.5939 837.474 883.655 907.696 -53.7454 10.3971 32.9457 -819.197 126.756
2807 2 -19.1013 -48.2963 -12.5405 -472.454 -229.384 -277.033 -42.9132 -43.1074 -218.521 -262.416 451.802
216 2 -21.6914 -48.4499 -9.8036 -443.29 -510.967 -441.102 39.9855 -33.7573 130.376 -269.613 252.867
298 2 -23.4316 -47.2339 -13.9802 -665.208 -522.825 -547.084 -54.3868 -28.7946 156.602 -263.171 319.907