ITEM: TIMESTEP
940000
ITEM: NUMBER OF ATOMS
29952
ITEM: BOX BOUNDS pp pp pp
-2.5093087473165852e+01 3.5078381815859899e+01
-9.0879718573564091e+01 1.0086501291556409e+02
-2.0985542515027589e+01 3.4853395661184415e+01
ITEM: ATOMS id type x y z v_StrAtomXX v_StrAtomYY v_StrAtomZZ v_StrAtomXY v_StrAtomXZ v_StrAtomYZ c_PEAtom v_VMS
9894 2 -21.33 -84.8597 -16.8475 -5.59067 29.4153 -158.722 -34.8558 60.7019 -39.2337 -76.8101 222.153
27633 2 -22.5724 -85.6678 -20.0652 10.0696 -2.00297 -194.398 -75.4627 31.819 12.6392 -76.484 245.122
7113 2 -23.7038 -86.0076 -16.9855 8.35193 -36.7504 -191.87 -53.0642 1.17592 -46.3986 -70.2283 219.095
9473 2 -20.1173 -85.8962 -19.3534 -73.7744 35.706 -179.387 -79.0726 53.7585 40.1872 -79.9742 258.795
29762 1 -22.1746 -86.275 -16.7111 14.5284 27.4759 320.513 109.825 -84.1084 92.2742 -393.635 415.673
7205 2 -22.0275 -86.6692 -15.1471 11.2029 -22.6632 -177.918 -53.7417 54.168 -53.1931 -69.3246 237.623
4993 1 -21.4521 -86.7517 -19.5835 115.919 -71.9849 421.592 161.357 -44.7412 -27.4077 -388.683 522.062
9799 2 -21.7472 -87.1683 -17.9787 -66.6194 59.0144 -194.96 -67.5531 21.1482 -19.8781 -67.2105 254.158
2327 2 -21.0112 -87.743 -20.8116 -126.641 105.052 -238.335 -77.28 36.0765 16.8517 -68.477 338.688
27177 2 -25.0135 -84.8747 -20.0533 13.8546 -25.0938 -159.744 -2.75881 26.6337 21.1285 -77.738 168.471
29654 1 -18.7389 -85.9903 -20.1853 213.591 -193.611 323.234 230.19 -175.22 -77.3282 -372.212 701.064
1944 2 -15.6975 -86.1464 -18.1505 -99.0233 189.752 -192.46 -105.811 34.3924 22.9273 -84.1657 397.262
29673 2 -17.8784 -87.0682 -19.361 -101.107 108.857 -172.766 -148.954 85.3822 30.9248 -78.9706 394.42
27087 1 -16.618 -87.4483 -18.4019 260.052 -300.089 307.278 308.047 -78.9226 -50.1082 -373.562 808.294
9700 1 -16.9874 -87.9415 -15.3745 357.649 -243.688 261.847 212.112 109.304 -82.8799 -368.993 710.351
7411 2 -17.0819 -87.9521 -16.9964 -166.425 137.677 -135.014 -126.98 -9.99734 8.46812 -78.4731 364.416
4495 2 -13.4486 -88.1188 -20.3744 -192.226 260.831 -172.327 -74.1151 102.359 30.822 -86.8064 497.396
2196 2 -15.7118 -88.4196 -19.3688 -163.081 191.164 -168.585 -161.966 39.3536 54.7645 -80.7296 468.841
4248 2 -13.6097 -89.8407 -15.8559 -236.615 257.11 -203.286 -74.5247 -46.2401 89.0785 -78.6333 524.691
12116 2 -13.2997 -89.7101 -18.4164 -258.163 276.014 -256.222 -91.7001 6.96069 75.9568 -87.8861 571.832
9899 2 -16.8965 -86.3786 -14.8533 -156.146 118.48 -114.323 -89.5075 -33.3138 -4.5105 -89.0108 305.136
4527 1 -13.1807 -90.707 -17.1375 594.243 -625.187 508.993 115.119 64.4064 -141.809 -373.874 1225.91
29775 1 -14.9846 -88.4826 -20.8553 393.174 -396.966 299.318 307.058 -181.735 -58.7295 -366.408 975.322
7410 2 -13.0822 -87.4121 -15.4707 -103.506 163.768 -155.276 -38.9614 -26.6934 58.6965 -84.7346 324.006
6926 1 -13.9306 -88.6507 -14.8501 273.801 -319.887 327.113 170.178 96.0051 -161.666 -371.198 761.511
2278 2 -15.5199 -88.4898 -14.9591 -156.813 145.146 -172.337 -119.704 -83.0487 68.717 -82.7415 417.076
4732 1 -14.9918 -84.6939 -18.2428 140.57 -450.26 454.61 124.469 -63.6991 -45.5969 -367.738 835.544
14780 2 -13.8612 -84.8153 -19.4038 -95.7775 225.121 -211.976 -41.9134 25.0094 9.95412 -82.345 401.51
179 2 -11.4459 -85.4365 -16.5295 -80.6801 213.2 -211.746 -25.7124 38.3458 31.4945 -84.0322 389.143
19703 2 -9.23474 -86.5033 -20.4998 -47.814 217.193 -257.421 -3.35866 48.35 -33.0575 -81.1198 424.307
19117 1 -8.20738 -86.6647 -19.2725 51.3315 -399.21 546.062 -0.0405325 -17.934 -4.34155 -368.332 819.551
7117 1 -11.9863 -86.9671 -16.498 180.864 -421.966 398.972 36.7409 -57.1596 -80.9512 -363.604 758.925
16822 2 -9.04733 -87.0416 -17.9275 -49.4476 201.933 -233.589 8.47239 15.1351 22.8644 -84.2178 381.916
27068 2 -12.6336 -87.2828 -17.9779 -130.628 268.604 -228.724 -38.2824 33.3756 50.3945 -87.3033 472.789
5069 2 -8.71418 -86.9844 -15.2528 -99.2506 169.25 -190.486 10.3141 56.7066 13.4875 -84.0965 339.743
9506 1 -9.10712 -87.835 -16.5407 154.906 -344.541 368.396 -15.878 -94.9855 -79.6239 -367.29 669.698
29566 2 -10.7412 -88.0155 -16.3606 -82.9044 189.241 -200.264 -5.56529 72.1804 65.6309 -84.7122 385.254
7201 1 -12.5769 -88.4236 -19.0858 354.136 -585.588 464.143 96.6848 -126.304 -125.429 -357.511 1059.08
9798 2 -11.0702 -88.8323 -19.4695 -104.48 292.555 -313.946 19.7994 58.3206 45.3629 -87.4728 549.756
9438 2 -8.28664 -89.2954 -16.3789 -128.197 175.243 -191.874 31.5748 25.5053 78.9318 -79.4251 372.942
4899 1 -10.1748 -89.909 -20.2569 91.9242 -494.444 743.619 -58.226 -78.5626 13.2846 -365.836 1086.22
14405 2 -7.18155 -85.3279 -19.2569 -50.9396 211.237 -265.323 -0.467811 14.592 6.45371 -81.5946 414.327
9517 1 -7.89517 -90.7926 -15.9948 419.307 -475.921 476.249 -72.8011 -1.77277 -194.089 -397.439 992.256
12006 2 -11.6435 -85.4355 34.7747 -143.118 211.071 -168.876 17.6624 53.5591 -29.5033 -80.2342 383.914
12367 2 -7.13139 -90.8255 -20.6698 -37.7083 270.383 -411.784 -22.2195 -31.1797 39.8443 -78.8885 599.385
7053 2 -6.96541 -87.8751 -18.9954 -23.6386 203.434 -291.053 4.04753 0.0212871 31.0313 -83.7412 432.126
6915 1 -5.63126 -85.3835 -19.791 140.369 -466.497 554.283 -35.041 -21.9533 10.9852 -372.826 892.352
11852 2 -1.55596 -85.455 -16.1726 -11.3023 221.589 -252.886 -9.55972 54.8751 56.7486 -80.9098 433.397
12309 2 -4.89584 -86.5928 -18.9434 -54.2151 211.814 -269.257 -6.00802 26.8119 22.712 -82.6764 421.941
7024 1 -1.63066 -86.8739 -15.232 -70.5279 -283.027 511.919 61.196 -121.096 -128.552 -379.236 782.927
12363 1 -1.236 -84.9583 -20.6308 43.2272 -403.167 609.995 -91.46 -58.1668 130.612 -380.947 927.317
14431 2 -3.0343 -87.3367 -15.9701 -8.56071 115.722 -226.073 14.4213 53.1199 125.616 -76.3261 382.385
16617 2 -5.52277 -87.6512 -16.6942 -40.6917 111.272 -202.085 22.5676 3.87279 100.329 -79.7567 324.711
19501 1 -5.45356 -87.8803 -18.3027 82.6615 -374.15 525.915 43.4026 -17.1534 -92.7351 -368.815 799.979
17008 1 -4.3496 -88.1387 -15.5232 60.6237 -154.771 406.356 -80.7205 -34.6524 -246.664 -387.062 667.887
14684 2 -2.5853 -88.3877 -19.9363 -70.2538 251.35 -385.401 38.7012 82.1693 -3.53069 -85.5643 573.486
17135 2 -4.46161 -89.1332 -18.4117 -76.3492 192.645 -357.032 -7.29875 28.2553 77.7032 -82.695 497.304
17093 2 -1.61288 -89.2605 -17.6903 -23.6414 168.869 -333.041 26.6648 165.579 102.148 -77.7823 555.01
9712 1 -2.9171 -89.2942 -18.6376 139.527 -426.16 760.571 -25.3712 -154.808 -174.694 -367.623 1105.62
16881 2 -4.3128 -89.7459 -15.711 -67.0934 137.4 -237.171 7.5394 -4.47235 119.509 -63.8878 385.489
14587 2 -2.51368 -85.9576 -20.8046 -25.4745 231.431 -365.16 52.9462 54.5619 -77.1382 -79.4072 551.221
9630 2 -2.68463 -90.87 -19.2459 -163.75 267.223 -475.755 30.077 119.838 69.037 -82.0618 691.119
19496 2 -6.35684 100.509 -16.1356 -162.52 258.495 -309.935 10.968 -57.4959 80.1528 -59.8485 539.074
7423 2 -0.403927 -85.6595 -19.4347 -48.7911 202.629 -239.029 32.1666 49.7969 -33.4843 -78.3511 401.421
9428 2 1.30294 -86.0501 -17.5467 -77.5396 208.823 -187.308 -54.4298 50.3059 -15.1499 -82.202 377.696
14679 1 1.25335 -86.1548 -15.9603 171.649 -490.687 470.639 205.145 -107.182 -41.6147 -362.277 944.472
19397 2 1.94909 -86.5375 -20.0158 -11.8411 109.048 -228.849 24.9837 7.88991 -133.906 -78.4669 379.2
9243 1 0.778174 -86.5716 -18.9529 61.8278 -324.675 430.503 -41.4448 -140.706 129.926 -375.207 736.878
7327 2 2.6143 -86.9514 -15.5125 -143.884 232.712 -245.679 -92.3572 31.7818 5.00538 -90.9892 468.206
6924 2 0.0818574 -87.0948 -15.5329 -23.2912 183.053 -266.526 -82.9262 68.4967 47.6981 -82.3789 439.843
11919 1 3.26622 -87.552 -20.4401 23.4774 -99.7542 431.537 -68.203 36.3329 327.4 -383.654 755.958
11929 1 3.89954 -87.8679 -15.2496 358.974 -372.868 455.249 89.1323 13.1653 7.37751 -347.976 799.898
14694 2 3.68707 -88.0275 -18.991 -70.301 81.3071 -221.2 -5.3547 -2.58228 -164.139 -81.2833 386.735
17001 2 0.448843 -88.1364 -18.6318 -3.23308 149.093 -282.775 73.0767 153.594 -38.5485 -80.2389 484.954
12212 2 3.26914 -89.3408 -15.7067 -202.23 153.751 -306.073 -44.2903 18.6333 -28.1131 -91.0447 428.683
12086 1 -0.019558 -89.5061 -17.9124 38.8065 -359.868 692.57 -117.132 -470.72 -70.2978 -380.712 1252.08
11914 2 4.9302 -87.7683 -16.4016 -135.82 159.466 -207.46 -10.5999 -76.7197 -54.2945 -90.6543 374.591
12198 2 0.818725 -89.8753 -16.5863 -74.1253 182.706 -332.55 15.1824 213.038 21.4254 -76.2341 580.811
12111 1 1.75347 -90.0431 -15.2704 370.737 -392.599 626.803 20.8679 -190.063 21.2026 -375.829 977.11
4424 2 -0.162435 -90.6682 -19.0247 -70.6338 246.405 -458.698 64.9903 226.086 21.4851 -72.4856 735.894
14485 1 4.96106 -87.8331 -18.0373 220.234 -239.373 420.908 31.4381 195.437 308.055 -361.503 863.704
17013 2 10.3926 -84.8357 -18.1825 -92.4926 117.57 -135.08 18.098 -62.0651 -13.8915 -75.0808 260.776
16983 1 7.26347 -86.3545 -19.0768 310.861 -370.033 316.477 -30.6227 180.313 271.01 -371.541 887.786
14592 2 5.76377 -86.5556 -18.4841 -137.936 177.303 -169.485 22.1654 -99.8051 -149.898 -83.6893 457.255
12503 2 7.1016 -86.7777 -20.5736 -161.115 128.8 -128.914 -33.3767 -139.963 -156.805 -80.799 460.028
12010 2 8.11751 -87.312 -18.0153 -147.678 190.036 -191.464 15.0942 -86.6636 -78.4123 -79.414 415.23
19784 2 9.61159 -88.3541 -15.9545 -99.3914 168.308 -196.638 -9.89614 -7.14227 25.8562 -70.276 331.067
19227 1 8.69305 -88.627 -17.253 263.713 -375.189 463.546 44.3678 158.362 30.5825 -384.26 812.25
24493 1 8.45209 -85.0023 -14.9553 239.864 -341.004 329.403 -91.8267 43.4007 93.6004 -374.911 674.288
14443 2 5.81973 -89.1847 -18.4102 -139.127 161.391 -293.672 -53.2603 -133.55 -126.302 -81.427 520.108
22211 2 9.33788 -89.5696 -18.3526 -146.112 216.96 -294.927 -99.8676 -150.915 -41.2822 -71.2954 557.993
12321 2 7.54871 -89.6028 -16.6886 -136.931 177.875 -279.175 -44.9246 -107.958 -25.3949 -77.936 455.049
16815 1 6.48828 -90.4411 -17.6366 349.337 -477.558 758.127 142.334 326.916 96.4143 -382.567 1264.19
24513 2 9.45803 -86.1893 -14.747 -110.454 154.248 -189.601 30.9388 -9.26987 -29.0439 -77.6234 320.845
5118 2 6.87081 -85.3844 -14.6904 -80.8003 193.361 -188.689 39.3045 -20.0519 -30.2203 -82.3438 353.502
24606 2 13.4206 -85.1422 -15.3288 -85.2373 158.255 -174.237 -65.0911 -65.3845 -45.6897 -73.571 347.389
19403 2 15.0928 -85.0045 -17.1896 -126.085 145.682 -163.3 -49.0392 -19.3673 -61.8921 -74.25 324.327
17187 1 11.7497 -85.4177 -18.8829 195.792 -263.297 279.465 26.1155 97.7639 32.526 -388.874 538.581
17489 2 12.7021 -85.9306 -17.7169 -86.7856 130.3 -133.042 -41.2149 -12.6062 -35.1457 -70.0795 261.889
12183 1 13.8934 -85.9269 -16.6527 211.818 -284.25 320.732 127.278 40.4026 114.881 -390.929 636.446
17109 2 11.5823 -86.5194 -20.0612 -119.661 183.53 -185.594 -25.38 -63.5403 -15.8387 -73.2404 362.022
19425 2 14.3052 -87.4075 -16.3001 -149.574 193.268 -179.78 -40.0422 -31.4833 -53.6208 -71.2907 381.074
1824 2 16.4545 -87.5571 -15.436 -171.2 166.724 -199.26 13.152 -33.4899 -62.7273 -77.3363 374.366
19405 1 14.9946 -88.1993 -15.1203 364.13 -414.766 420.466 24.0466 106.458 117.964 -385.696 855.11
14741 2 15.7064 -89.2638 -20.0085 -226.698 220.371 -164.479 36.1013 -10.5607 -3.77521 -74.2329 424.515
19505 2 15.0304 -89.7921 -15.0837 -246.278 204.111 -215.238 6.87441 -20.4592 -0.707952 -72.596 437.302
14896 1 16.6313 -84.6306 -17.144 250.833 -304.948 321.737 32.2947 49.5931 145.342 -384.714 653.611
16637 2 16.8185 -88.4686 -17.844 -229.749 198.954 -105.03 40.3601 -18.3925 3.57371 -73.147 389.632
17077 1 17.1344 -89.4361 -19.1265 472.074 -395.189 212.088 -162.342 -7.66822 -17.6007 -389.126 821.238
24378 2 17.4369 -86.0057 -17.3736 -195.158 147.596 -157.577 27.5165 -57.455 -45.7219 -75.7335 352.785
17100 2 21.5317 -85.7553 -17.9091 -90.837 103.377 -116.17 69.08 -38.9121 -73.9016 -79.3907 280.221
14433 2 22.3042 -86.8627 -19.8941 -95.7397 59.4848 -110.521 149.215 -1.21369 -67.7498 -79.3797 327.38
2030 1 21.3971 -87.1684 -18.6257 228.527 -218.98 239.178 -260.794 -1.87772 180.066 -381.618 711.664
22361 2 21.4678 -87.1891 -15.3439 -101.601 143.503 -170.827 51.366 -18.9639 -71.8595 -77.5096 326.07
22012 1 19.858 -87.368 -15.1723 178.333 -307.074 371.23 -94.4142 22.3809 120.931 -381.531 662.254
17179 2 19.8856 -87.2364 -19.1592 -123.466 138.696 -135.251 112.434 -6.95038 -52.2215 -75.2138 343.814
14416 1 17.4265 -87.489 -16.7312 348.613 -346.154 305.599 -43.6156 48.2156 61.409 -382.571 691.853
27201 2 18.8657 -87.9364 -16.3444 -130.654 164.588 -163.872 46.7775 -18.1755 -44.0177 -75.5968 333.836
29298 2 21.7598 -88.6388 -18.1006 -157.485 149.633 -161.31 128.568 44.3988 -115.016 -71.4457 436.692
27070 2 18.2192 -88.73 -20.0465 -206.708 192.104 -128.674 109.689 -3.78638 -3.89085 -74.5924 412.557
21988 1 19.0674 -87.4942 -20.488 311.819 -378.134 282.238 -221.987 27.9162 56.9661 -384.004 785.117
24409 1 21.7356 -90.2278 -17.715 364.499 -333.932 448.314 -206.582 -164.436 190.314 -407.676 933.367
24657 2 20.2746 -90.609 -17.1911 -214.789 183.581 -199.172 95.086 50.5354 -75.3688 -65.2378 452.27
1928 2 22.9923 -90.4078 -16.7847 -152.337 176.51 -279.133 58.8147 62.5888 -123.359 -65.0168 483.421
16969 1 22.9993 -87.0574 -14.8741 279.121 -326.886 258.481 -57.6928 51.9149 179.22 -377.809 685.269
29301 2 17.877 -90.7606 -18.5316 -270.105 199.899 -116.913 82.0016 30.6166 -27.6391 -68.0659 444.575
14598 2 26.2684 -85.436 -18.1077 -130.029 48.4047 -102.829 50.3344 -31.6917 -85.3014 -89.245 245.291
27299 2 28.4748 -85.8155 -15.4252 -125.205 94.7722 -106.454 121.258 43.314 -67.8784 -77.7431 328.904
2032 1 23.3616 -85.8834 -20.5931 69.0942 -17.0809 222.191 -190.945 -4.44236 79.0416 -363.05 415.017
22367 2 23.8001 -85.9515 -15.5769 -126.984 130.127 -105.301 40.5819 -57.6651 -89.1577 -79.7988 315.856
27371 2 27.4151 -86.1277 -20.3486 -125.04 -4.96118 -147.893 28.0636 -52.8951 -59.9384 -92.1791 198.039
10 2 24.8614 -86.4754 -20.0753 -49.9488 -1.60385 -127.691 72.478 -12.7499 -79.9239 -87.1757 218.06
14510 1 26.1846 -86.5503 -19.233 269.312 -62.1327 266.193 -73.7883 84.0497 255.226 -357.096 584.62
24675 1 28.1489 -87.2664 -14.9294 339.055 -351.832 318.849 -269.768 -32.8086 184.415 -382.445 887.329
24558 2 26.6626 -87.9347 -18.7582 -223.084 120.224 -153.1 44.605 -57.9412 -200.929 -78.6293 485.686
29792 2 27.8191 -87.9203 -16.3626 -232.642 168.79 -140.519 96.6095 -10.2888 -154.304 -76.2435 482.079
24504 2 23.7564 -88.4329 -15.2803 -135.715 191.885 -190.998 15.553 -18.3352 -112.517 -77.3164 410.126
4599 1 27.7927 -88.6048 -17.8242 556.667 -358.814 323.084 -96.3602 128.409 394.82 -390.918 1106.25
21898 2 25.7257 -89.8867 -16.4553 -237.247 202.023 -281.808 43.8166 -43.043 -168.404 -72.4602 557.598
29569 1 24.2366 -89.8943 -15.8848 323.719 -382.831 561.252 -57.8911 3.14283 277.597 -388.951 982.205
19688 2 27.8123 -90.2272 -17.577 -333.651 274.6 -274.08 1.23516 -100.851 -141.507 -59.899 654.121
27246 2 27.9217 -90.68 -14.9374 -274.488 220.027 -352.834 37.254 -27.7543 -58.9457 -66.6004 553.466
5 2 28.9544 -87.82 -18.7501 -171.654 91.5269 -171.941 37.0005 -65.9822 -150.877 -71.9852 393.446
2223 1 28.9006 -86.9923 -20.0709 191.259 -39.8835 317.413 -69.0806 181.366 130.062 -372.716 512.101
29389 1 27.0493 -90.8375 -16.3121 646.634 -541.416 692.458 -17.55 152.343 201.255 -404.771 1288.43
29 2 24.6566 100.841 -14.7137 -227.959 215.595 -328.882 48.4107 -48.418 -90.7452 -72.4818 538.942
7492 1 34.9251 -85.8401 -16.701 19.8285 68.4016 375.401 54.9514 55.1116 100.596 -394.628 400.061
4823 2 32.5489 -85.1822 -19.6425 45.8122 -23.881 -152.347 27.9951 21.4601 42.6604 -76.4391 198.762
2515 2 30.0308 -85.8988 -20.1626 14.4208 -6.27964 -171.388 65.3806 -62.6714 -0.726367 -81.9272 236.041
9928 1 33.9757 -85.9377 -19.6131 -4.72053 85.4275 328.166 -20.7642 -68.2478 -50.7404 -390.115 334.547
29289 2 34.2238 -86.2908 -18.0389 -28.5749 -18.514 -166.247 -0.440569 3.43152 -17.6356 -67.7706 146.318
4740 2 34.4958 -86.7733 -15.455 -12.3783 -6.08294 -246.494 1.15692 -43.1564 -60.825 -64.0421 270.211
27562 2 33.7768 -87.1771 -20.6154 -48.0778 11.268 -225.001 1.44782 29.9989 7.46124 -65.5996 219.537
4983 1 -23.4978 -84.3087 -20.2233 -30.0014 -35.9425 332.315 58.5696 -66.6889 -15.0182 -376.915 397.204
26871 1 -20.347 -83.6194 -16.6461 98.825 -189.678 283.248 45.6006 -168.222 58.4053 -375.784 521.364
7685 2 -20.0755 -83.4448 -15.0093 -75.6655 124.359 -147.399 -18.306 59.9826 -43.0693 -78.6743 277.251
29648 2 -22.9198 -83.0831 -19.2465 13.0985 83.301 -198.512 -23.3004 27.7759 14.6134 -79.221 262.958
1640 2 -21.2154 -82.3989 -17.3809 -1.40425 106.943 -195.303 -37.3151 67.8635 -6.36809 -78.1529 297.422
2608 1 -22.0146 -81.835 -18.6913 -4.40484 -241.551 420.903 78.4038 -65.7769 -20.3483 -376.587 608.809
24612 2 -20.8329 -81.4841 -19.7681 -64.7727 120.76 -158.752 -29.5572 38.1178 -6.47472 -81.2876 260.377
7419 1 -19.3595 -81.1204 -20.2421 249.617 -251.956 154.743 49.25 -143.458 36.6249 -370.933 534.82
4955 2 -22.8984 -80.3897 -18.6522 2.58896 131.556 -206.899 -42.1834 -6.29715 30.2105 -79.2144 309.403
29750 1 -23.5379 -78.8956 -18.6876 31.3237 -173.494 332.273 19.5701 33.2208 -62.0264 -371.362 458.435
5039 2 -24.7478 -79.0384 -14.9775 -91.5554 55.0079 -96.2582 32.5702 13.8418 20.2576 -78.5458 164.865
366 2 35.0747 -81.6584 -15.5835 -73.0211 124.745 -155.009 5.37788 0.665298 26.1563 -74.8412 253.354
12497 2 35.0685 -78.5935 -18.3999 -46.0752 80.7725 -173.878 27.7324 -15.2635 33.4669 -83.9263 234.525
2035 2 -18.9722 -83.7276 -17.5082 -124.13 141.513 -134.103 -39.7683 80.3259 4.52415 -83.4456 312.214
2132 2 -18.1184 -84.5734 -19.9354 -115.597 152.846 -145.576 -84.3164 91.9911 19.0636 -82.1932 358.905
10187 2 -18.9532 -79.7918 -19.3999 -110.359 138.648 -83.4901 -16.6862 99.9798 7.16238 -81.6413 294.979
9869 2 -16.3758 -83.7489 -18.3622 -69.362 205.448 -202.451 -57.146 57.3543 33.3875 -82.9394 390.919
12271 2 -14.1664 -83.8986 -17.0959 -96.3538 228.812 -202.612 -67.2238 4.32387 43.9918 -83.7151 413.515
2524 1 -17.9182 -83.5473 -18.7385 205.28 -357.666 328.331 118.293 -174.028 -48.5717 -368.315 735.687
4900 1 -13.4353 -82.4512 -16.9838 211.476 -456.334 347.335 177.424 -18.0162 -137.91 -369.643 841.204
27167 2 -18.3293 -82.097 -19.3588 -119.513 153.238 -126.28 -23.3718 97.6471 3.90294 -82.7094 326.456
9814 2 -14.2351 -81.4932 -18.1061 -145.744 212.069 -150.469 -76.6648 0.998343 41.883 -82.3562 390.693
7772 2 -13.5345 -81.6977 -15.5852 -94.841 237.586 -216.922 -81.0075 31.6403 66.378 -84.7517 449.335
7484 2 -15.9934 -81.4507 -15.0723 -142.911 256.352 -197.432 -3.48196 35.6548 40.7538 -90.2466 439.3
12289 1 -17.5335 -80.9322 -15.1728 310.09 -480.197 368.982 -88.5438 -124.594 -81.6156 -356.781 874.435
7951 2 -18.0709 -80.7032 -16.7426 -127.992 181.561 -143.642 21.139 123.223 53.0734 -86.2715 395.291
9964 1 -14.91 -80.4721 -19.1067 283.282 -337.88 148.359 55.6011 -20.0818 -15.1492 -373.133 575.682
7326 2 -16.3824 -79.9678 -18.5786 -108.175 141.757 -81.3845 0.10793 61.4737 30.0194 -83.562 265.572
2583 1 -17.9354 -79.7224 -18.0705 207.245 -292.639 197.054 6.34048 -243.088 -87.2282 -366.323 667.17
2314 2 -13.9918 -79.152 -18.8286 -147.144 160.205 -67.7418 16.5441 4.63733 15.6413 -80.9421 279.255
7185 2 -14.6313 -79.2791 -14.873 -101.748 183.737 -217.457 -25.4136 17.3624 33.8994 -96.1294 366.351
9635 2 -15.063 -80.8142 -20.6802 -113.158 128.55 -89.6635 -32.645 27.0822 -18.1909 -78.0994 244.307
7696 1 -14.5713 -80.914 -14.5908 233.893 -476.786 428.891 117.466 -67.3668 -68.7632 -352.979 866.524
29407 2 -11.2301 -84.4501 -18.8851 -82.2349 172.272 -215.079 -32.2419 21.9632 -14.7067 -83.1417 348.49
9795 1 -12.4 -84.554 -19.9994 244.899 -397.909 370.447 68.4479 -30.8455 55.2272 -371.353 731.934
12099 1 -10.8833 -84.1522 -17.3709 107.552 -375.275 438.447 37.9482 -88.7901 -59.7482 -370.485 735.568
4281 2 -9.32422 -83.9261 -17.16 -45.527 183.465 -234.528 18.8545 47.51 47.9088 -80.7968 382.312
4622 1 -7.88688 -83.3917 -16.6093 91.6581 -398.817 447.482 -68.2266 -70.3919 -55.5675 -374.468 761.441
11913 2 -8.30638 -82.9081 -15.0884 -30.5104 203.09 -245.193 17.3977 17.3518 17.4411 -80.7429 391.831
2300 2 -11.868 -82.8126 -17.1759 -49.0696 200.335 -209.405 -55.6265 29.4089 63.1072 -80.2862 389.517
2016 2 -7.38963 -82.1785 -17.5604 -62.2199 191.536 -220.955 33.9527 31.4227 15.9904 -79.1354 370.211
19902 2 -8.50287 -81.9724 -19.8002 -67.2791 162.718 -195.349 50.4796 51.6735 -3.53845 -74.7377 338.303
2307 1 -7.42677 -81.2074 -18.8708 164.202 -366.423 413.729 -62.8851 -44.1434 -24.3247 -382.309 704.071
2324 2 -7.77253 -79.6724 -18.4437 -78.1084 185.833 -209.562 -20.9226 -5.08276 1.75881 -76.349 350.772
20075 2 -8.46899 -78.6377 -16.1814 -37.8837 135.421 -225.529 -42.5306 -5.09334 18.1864 -82.2169 322.895
7379 2 -12.4488 -83.0249 -20.5537 -134.016 155.112 -153.665 -69.7988 14.2744 -63.1353 -79.137 341.829
1741 1 -9.04922 -79.0405 -14.7836 -1.43022 -351.936 535.937 68.9698 -3.24009 -51.3345 -369.062 788.781
20025 2 -6.60383 -84.4397 -16.3158 -34.0662 213.299 -217.509 37.3232 50.3945 29.6084 -80.3974 393.25
17276 2 -3.8863 -84.1999 -16.2639 -15.6032 199.531 -244.501 42.9421 62.7755 26.7848 -81.1412 409.179
12316 1 -5.26897 -84.2221 -15.5027 31.2792 -416.644 510.357 -91.5119 -104.928 -32.3242 -372.284 840.254
1833 2 -4.63735 -84.159 -19.8889 -73.5564 226.254 -239.493 38.4176 22.1203 -4.85466 -77.9015 416.097
9616 1 -2.31488 -84.037 -16.2044 47.5446 -413.518 494.873 -6.35217 -110.463 -53.993 -368.354 815.108
12216 2 -2.04188 -83.5684 -20.5204 -35.1769 166.438 -238.136 20.137 32.0284 -43.5503 -75.3756 364.341
17202 2 -1.71778 -83.123 -17.326 -73.8576 162.661 -178.983 -11.7038 45.4624 4.28442 -82.117 313.884
17465 2 -3.76112 -81.7607 -20.131 -103.411 157.032 -155.149 7.43415 30.2221 -31.6736 -75.6853 299.829
5003 2 -5.961 -80.9156 -19.5717 -88.6987 161.01 -182.207 35.8847 18.8292 -15.3668 -76.211 316.359
17170 2 -3.87044 -80.6977 -15.2423 -26.8547 150.371 -230.845 -15.1312 22.4004 11.432 -86.2082 334.301
14411 2 -1.77783 -80.7415 -16.6996 -82.4322 170.165 -203.695 -7.13752 30.6256 -35.513 -85.5856 340.427
7299 1 -4.42937 -80.4949 -19.5026 194.652 -313.253 298.833 -48.9656 -64.6086 90.1068 -380.662 604.821
4722 2 -4.0785 -80.3501 -17.9423 -85.7807 133.674 -181.307 3.16923 61.4028 -42.5981 -80.9092 308.276
7420 1 -3.26162 -80.0573 -16.6389 113.643 -307.713 397.989 7.50863 -86.985 59.8425 -366.618 641.729
17081 2 -3.8668 -79.1927 -20.3219 -104.059 145.725 -114.162 20.9954 19.3834 -81.3902 -76.6766 295.534
14603 2 -5.34762 -82.7399 -14.824 -6.70089 185.139 -264.674 28.3149 37.3547 15.0445 -83.3608 400.141
11837 2 -1.88321 -83.3524 -14.7671 -21.436 136.22 -290.068 -20.9494 46.0864 -4.80192 -88.3518 383.572
2334 2 -1.14745 -78.6527 -14.6959 -88.1441 207.675 -205.864 38.6753 2.5897 5.43757 -86.7393 375.216
7204 1 -3.59533 -83.2231 -20.7332 162.758 -401.273 425.985 -52.163 -80.4159 90.0542 -383.445 766.668
11934 2 1.26629 -84.6344 -15.4537 -95.9643 222.832 -257.958 -101.39 26.1901 -4.5764 -87.9584 460.952
14872 1 -0.848925 -81.7949 -17.4512 157.767 -334.97 329.505 39.6744 3.31581 91.1482 -369.621 621.759
12002 1 1.2763 -83.0319 -15.4038 147.212 -358.941 475.223 122.906 -10.9179 68.2079 -359.074 767.748
2118 2 4.23334 -82.6752 -17.3337 -98.5913 189.094 -141.732 1.94826 -77.2272 -64.9945 -79.4577 357.227
17084 2 2.74817 -82.3879 -15.2345 -51.3554 214.002 -225.899 -1.78032 -34.7204 -57.2369 -84.044 400.813
7400 2 3.6665 -82.4776 -19.9524 -68.0573 130.85 -165.861 -27.2844 -68.5722 -31.3866 -79.9986 296.444
24400 1 4.30392 -82.3393 -15.7536 155.52 -439.25 384.351 -55.7705 94.1471 140.765 -373.088 798.488
21706 2 0.474831 -82.2551 -16.6014 -83.4382 169.733 -184.133 -44.014 -10.1696 -53.8561 -84.5466 338.455
9410 1 4.58597 -81.9492 -18.7162 199.533 -301.988 261.742 51.4681 121.522 30.6991 -374.273 584.525
12414 2 -0.4558 -81.0585 -18.899 -63.2749 148.287 -134.715 5.60967 -37.891 -51.7899 -78.085 278.252
17091 1 0.170709 -80.5376 -20.2749 131.79 -317.66 286.309 15.3219 22.9888 105.586 -380.887 575.382
17385 2 4.24656 -80.4065 -18.5118 -88.441 153.089 -155.306 -36.5755 -34.3887 10.6185 -80.7412 294.716
2142 2 0.819945 -79.1192 -20.1615 -113.498 137.149 -139.551 -39.9606 14.1126 -33.1762 -79.8636 280.576
14809 1 3.78796 -78.8571 -18.3904 130.702 -285.594 335.19 89.9514 25.8181 -73.6264 -372.269 585.475
14892 2 2.44511 -78.7436 -17.529 -83.6657 162.544 -157.308 -28.8415 -19.9647 18.744 -83.3292 298.193
19524 2 1.23244 -81.697 -20.6582 -69.1914 138.097 -180.432 -9.54616 -32.8414 -47.6384 -77.462 297.858
11997 2 7.48824 -84.7835 -19.0888 -159.775 185.227 -125.946 14.8756 -46.3532 -78.0481 -81.1867 365.902
14501 2 5.19359 -83.4744 -15.0303 -83.8628 225.271 -213.232 18.1381 -27.0593 -74.857 -81.4235 415.075
12113 2 4.9694 -80.9365 -15.5003 -98.5031 225.927 -184.556 27.1682 -23.81 -16.3984 -80.7533 381.182
26897 2 8.55658 -84.3899 -16.3868 -141.614 178.326 -121.418 41.422 -30.1897 -46.877 -78.3965 332.839
21901 1 9.56829 -83.6705 -17.4778 250.243 -326.186 244.171 -54.4685 58.0191 47.8131 -379.833 595.538
11810 1 7.35711 -83.2255 -19.2952 285.146 -334.022 216.148 14.505 71.7891 56.4895 -372.46 609.158
19306 2 8.6233 -82.8176 -18.4768 -128.815 174.593 -130.781 12.8088 -5.06655 -10.5772 -79.1275 305.878
22195 2 10.6248 -82.732 -16.7128 -114.549 167.814 -137.348 18.6907 -31.8768 -29.3901 -77.9575 305.572
17096 2 6.10856 -82.4462 -18.7962 -120.311 153.616 -119.33 -22.6865 -57.1373 -5.9554 -80.789 293.62
17460 2 9.69718 -80.5306 -17.0779 -102.231 168.899 -166.502 -6.8603 -32.0676 -22.3629 -81.4214 315.903
14902 2 7.14962 -79.7058 -16.4728 -84.5434 164.358 -148.009 1.27947 -44.3199 3.91907 -82.1706 296.176
7596 2 8.05581 -79.4817 -18.8958 -111.301 156.291 -115.487 26.1294 -42.78 13.8039 -81.8701 284.347
9734 1 8.47037 -79.545 -17.3675 202.48 -332.908 278.417 -0.887328 94.2607 23.8771 -369.802 601.191
17284 1 8.11069 -78.795 -20.3828 267.843 -266.516 174.294 -43.4372 44.4746 -56.0844 -371.992 515.105
12196 1 6.17095 -79.8346 -15.1548 192.426 -372.713 325.423 1.78477 35.9481 -16.4422 -370.394 645.7
17182 2 5.36681 -78.5793 -14.5788 -70.4785 161.619 -159.625 -23.7357 -9.98529 3.40654 -84.3905 290.742
21987 1 11.0788 -81.1494 -16.7462 210.422 -303.2 272.19 5.2273 61.0567 56.3205 -374.171 565.801
17039 2 12.3321 -84.0804 -19.5687 -113.215 133.148 -125.461 -6.65694 -46.9123 -21.9073 -76.2593 268.396
19387 2 14.1213 -82.7175 -15.3322 -101.079 177.265 -184.491 -47.158 -49.0156 -40.9509 -75.4232 355.753
12324 2 13.901 -81.9104 -19.6571 -98.2695 136.327 -130.263 -21.3944 -56.4594 11.9711 -78.8798 273.735
17019 1 15.0284 -81.3991 -15.6804 139.985 -291.35 352.703 64.1798 44.8759 30.5633 -384.362 586.73
27090 2 14.8836 -81.2288 -17.2764 -84.4006 127.88 -118.726 -41.1309 -44.78 -20.0482 -75.902 256.563
17286 2 12.3593 -81.2113 -17.8066 -115.366 138.388 -116.944 -17.819 -53.2881 -9.45559 -79.5725 273.009
14882 1 13.8379 -80.8894 -18.4212 211.044 -242.33 218.228 64.1376 124.529 2.65734 -377.32 517.437
7427 2 11.7322 -80.4114 -15.448 -120.552 140.686 -136.936 -11.0497 -33.4668 -30.8509 -81.0976 281.737
22355 2 14.1869 -80.1242 -15.0782 -89.376 123.836 -175.484 -19.3376 -26.9972 -11.5145 -77.482 273.751
19704 2 13.8816 -79.2521 -18.7939 -83.9109 82.5947 -128.758 -33.5853 -64.8937 16.4814 -80.2491 232.454
10092 2 11.8032 -78.8527 -20.151 -89.5692 103.233 -144.172 -47.1662 -34.6284 19.8618 -81.9831 249.271
24764 2 16.9287 -81.7831 -20.3962 -85.5251 131.144 -183.131 4.66492 -35.4312 -8.18026 -79.5708 285.75
27349 1 13.1184 -83.0948 -20.524 193.609 -262.024 261.778 2.09192 66.5367 6.51392 -376.793 506.685
22182 2 16.4346 -81.2838 -14.9522 -66.5896 138.063 -213.011 -26.7544 -22.2617 -1.53921 -73.341 311.334
12223 2 17.1546 -83.5212 -18.2432 -100.397 136.305 -113.901 -4.97185 -33.7866 -74.2509 -74.4437 281.86
7115 2 17.0762 -84.3347 -15.626 -104.519 161.742 -208.986 -8.37941 -13.6869 -51.4473 -75.4331 344.001
19588 1 22.2099 -84.2627 -18.2138 136.856 -203.666 248.312 -12.4291 94.6475 104.011 -371.738 475.525
16817 2 18.5352 -83.7377 -20.4624 -79.8733 139.835 -150.215 -5.98033 -9.07889 -40.0478 -78.0067 271.736
19500 2 21.1081 -83.1533 -18.1894 -88.8803 133.048 -139.03 -22.1715 -31.7941 -51.9078 -78.4713 274.75
15064 1 17.8806 -82.6729 -19.429 159.459 -263.504 257.738 -0.5128 23.7016 91.5774 -381.46 506.922
19761 2 19.0412 -81.8448 -18.804 -81.0972 128.253 -165.26 -9.43124 -20.3438 -60.0059 -76.6598 284.326
24501 2 19.9333 -81.6719 -16.3806 -127.673 126.89 -129.189 -19.128 -22.6797 -50.248 -73.9159 274.602
27097 1 20.3867 -81.7433 -17.9546 205.964 -278.744 280.188 34.1066 60.7834 101.621 -381.85 567.434
22075 2 21.3748 -80.5009 -18.2825 -122.501 158.123 -176.113 -13.2177 -20.7516 -18.5991 -77.089 315.472
175 2 22.7602 -79.7479 -20.4161 -96.511 170.105 -168.502 -3.1628 -5.68949 7.64206 -78.0335 309.457
21889 1 22.2726 -79.3745 -18.9215 214.298 -334.11 372.844 -37.0687 -0.797267 -70.4866 -381.478 657.165
26793 2 18.8162 -79.2921 -20.1722 -84.1284 59.4484 -149.342 10.7763 -12.773 17.7008 -79.4056 189.758
19596 2 17.7106 -78.9283 -15.1481 -103.952 122.136 -168.839 -21.3338 -49.3785 -33.8064 -71.2455 286.54
24691 2 17.6563 -78.8563 -17.815 -73.1417 54.2893 -179.473 1.81008 -34.957 46.2208 -75.2414 226.229
22299 1 19.8051 -81.9248 -14.8024 188.315 -225.833 272.357 44.1117 -10.5407 30.7521 -387.836 471.588
29601 2 23.1018 -84.612 -19.5397 -136.779 65.9353 -130.973 21.2319 -29.7523 -49.3367 -86.1409 226.407
19532 2 23.1902 -84.0142 -16.9987 -154.05 85.6625 -90.2403 7.39301 -70.1687 -39.5453 -80.938 256.64
29761 1 24.0475 -84.4134 -15.734 228.643 -181.235 147.732 -66.5757 119.338 41.1614 -376.36 449.987
5162 1 28.8181 -84.2977 -15.6323 175.086 -102.287 150.737 -217.826 -75.7307 94.2608 -379.354 506.931
20152 1 26.4794 -84.0024 -17.3431 197.037 -148.783 162.673 -141.613 39.2711 53.5147 -366.185 426.93
27079 2 25.5514 -84.0307 -16.1106 -95.7991 64.4817 -63.0404 59.0635 -45.0092 -12.1711 -79.3765 196.214
24611 2 28.0669 -83.8271 -16.9822 -96.4562 77.1541 -78.6044 116.073 24.6166 -32.7151 -81.4447 269.829
24972 2 25.8335 -82.9398 -18.3613 -81.8738 122.064 -136.344 43.3083 -22.8169 -9.66664 -84.8744 251.267
29667 1 25.4575 -82.5411 -19.9379 123.296 -284.028 356.876 -12.6899 15.7428 46.8721 -359.946 568.712
22267 2 24.0845 -81.9443 -20.3941 -50.4048 147.44 -176.809 -43.6494 -8.90657 -27.4625 -83.9333 297.23
29865 2 26.5056 -81.3209 -20.1491 -62.7837 166.149 -198.777 32.1396 11.6457 -4.66094 -83.4467 324.975