ITEM: TIMESTEP
160000
ITEM: NUMBER OF ATOMS
29952
ITEM: BOX BOUNDS pp pp pp
-2.5093087473165852e+01 3.5078381815859899e+01
-6.5444192967863430e+01 7.5429487309863433e+01
-2.0985542515027589e+01 3.4853395661184415e+01
ITEM: ATOMS id type x y z v_StrAtomXX v_StrAtomYY v_StrAtomZZ v_StrAtomXY v_StrAtomXZ v_StrAtomYZ c_PEAtom v_VMS
22290 2 -23.0804 -61.6677 -18.3373 81.1091 -43.6078 -52.1791 -24.1671 -26.2973 9.62432 -98.5517 144.227
291 1 -21.5384 -61.5215 -18.964 -142.16 65.6691 62.0608 1.37286 78.7163 -17.5892 -338.651 248.955
5563 2 -20.3407 -61.2544 -17.9448 63.6287 -67.1031 -5.61244 8.62774 -17.7973 5.96551 -98.0121 118.8
10210 2 -21.2276 -62.9923 -19.544 46.6887 -43.4979 -29.0311 21.2302 -34.8666 36.5532 -97.1116 126.672
4780 1 -20.6864 -64.4314 -19.8545 -110.326 66.4502 15.2644 -118.186 22.4527 -35.2226 -344.97 268.253
397 1 -24.659 -61.7601 -18.4765 -133.279 74.8138 80.8502 37.2868 -19.7812 -44.7991 -338.353 236.561
10279 2 -21.3605 -60.1698 -19.8614 58.9046 -91.7278 -21.7547 -32.7972 -57.8997 -16.0948 -96.8208 176.373
2876 2 -23.516 -63.3839 -15.5946 34.7338 -41.253 -13.1008 -11.6278 -12.9806 -27.9599 -95.333 87.6568
4977 2 -21.3697 -64.8941 -15.9504 16.9269 -23.7153 -11.7865 18.7636 -1.36085 -0.90314 -93.0722 48.7185
5105 2 -19.5357 -60.9626 -15.5122 46.4967 -66.1439 28.5756 12.0061 16.7363 -3.7815 -94.5305 110.933
5183 2 -20.5943 -65.263 -18.4269 22.9194 -27.2869 -9.00029 30.584 1.97459 -1.5678 -93.3566 69.0087
2156 2 -24.7994 -60.9919 -15.3557 -4.9288 -9.40912 -10.7224 -24.6462 -7.89026 -12.4056 -95.5952 49.9845
4920 2 -19.2643 -64.0892 -20.557 60.4634 -55.2712 -7.50928 43.7484 -31.5267 -4.71395 -94.5429 137.616
2523 1 -24.8854 -62.5925 -15.6423 -66.4836 61.2183 -0.50187 -0.0175971 11.5912 92.6628 -344.446 195.953
9893 2 -21.8036 -65.3355 -20.5818 -12.8657 -32.7061 -9.4403 43.1798 -11.1265 25.0777 -94.4072 91.2408
202 2 -24.9866 -60.1723 -18.401 53.0885 -50.6128 -48.9064 -17.5564 16.3085 27.3101 -99.6184 120.582
7648 1 -19.1669 -60.6672 -17.0005 -133.932 119.06 -31.1115 -4.94715 -6.17055 -14.441 -342.338 222.211
7599 1 -25.0187 -59.4641 -15.2083 30.4813 28.2267 -26.3407 67.2609 30.7793 -61.6941 -343.113 175.893
2689 1 -22.1536 -63.9016 -14.9572 -61.1457 104.426 -32.6625 -20.0681 11.7201 35.4591 -347.277 170.004
5090 1 -16.6257 -62.6237 -17.1707 -58.4287 148.31 -119.867 -4.07207 -36.7937 34.9227 -343.564 258.818
25065 2 -15.3398 -62.8648 -18.0514 16.0171 -85.9015 66.1546 1.07677 10.6302 -6.21937 -96.3884 135.903
7292 2 -17.264 -64.0622 -16.7456 27.6652 -56.015 41.2605 6.37727 18.4827 -29.9116 -93.1734 110.253
10179 1 -14.0427 -63.6795 -18.499 -44.4013 156.089 -156.912 -28.0373 -12.9303 25.0736 -344.992 283.122
2616 2 -17.8686 -61.5748 -17.3524 64.4372 -68.6504 29.5393 -3.15721 2.70556 -3.58481 -96.319 119.9
370 2 -15.6054 -59.7838 -19.0617 33.2904 -38.9156 49.5161 24.7001 -6.61873 32.6361 -96.6531 108.654
2312 2 -15.819 -62.0048 -15.8739 22.2228 -61.6425 72.0538 7.03035 55.1263 -22.2209 -95.2044 156.339
12435 1 -16.2622 -60.8442 -20.2325 -97.527 141.939 -94.498 -5.11808 23.6933 2.1452 -337.222 241.67
2815 2 -17.204 -62.1844 -20.203 39.0656 -80.522 32.9059 4.31079 -15.1259 -10.7718 -99.0311 121.214
27591 1 -14.69 -61.1884 -15.1027 5.92951 30.1965 -150.643 -21.6181 -104.838 41.9337 -341.829 261.828
10317 2 -14.7046 -64.8647 -19.3932 -12.8094 -36.5063 32.7396 12.8742 -19.234 -9.95818 -93.2983 74.9679
7529 2 -13.208 -61.3398 -15.8831 -13.0893 -26.1413 86.1503 34.0837 6.11516 -10.6533 -96.276 123.499
7399 2 -13.1333 -64.2669 -17.286 -15.8691 -59.9096 84.6446 -9.01565 12.637 -26.1834 -92.7517 138.74
86 1 -17.793 -65.3836 -15.9253 -42.665 35.1525 -45.3995 17.7025 -95.0551 55.3614 -355.495 208.607
9920 2 -15.0583 -59.6631 -15.01 12.3958 -7.12808 30.0433 -5.66883 32.087 -1.61696 -96.7224 65.0396
42 2 -16.811 -64.6048 -20.8577 1.80293 -26.1535 -8.81117 0.211392 -45.7915 6.08384 -93.8439 83.6616
7581 2 -17.2304 -59.7776 -20.9403 31.8446 -59.191 40.916 -5.0591 -9.49237 -8.79884 -97.8728 98.8684
29670 2 -12.9888 -62.7057 -19.1966 14.8063 -76.5613 77.6174 15.374 -12.7716 -20.2987 -96.9868 143.062
12604 1 -8.83999 -62.9514 -18.3625 8.05548 56.047 -78.0487 24.4296 -66.7566 21.1673 -347.103 174.222
7391 2 -8.26647 -63.2031 -16.9127 -5.44185 -0.94384 25.0987 -19.9269 43.8042 -27.228 -92.1166 99.9368
9878 1 -11.5571 -62.2759 -19.7515 -14.4001 137.137 -146.322 -10.2171 -46.0777 -9.16226 -338.663 259.407
2482 2 -10.3884 -62.6518 -18.7222 9.07611 -54.7519 54.4298 1.19237 19.6322 -2.55065 -95.3844 101.024
7614 2 -7.95401 -61.7244 -19.0255 -11.249 -6.58599 18.8891 25.1748 22.022 27.9345 -94.6013 80.5402
10459 2 -11.3609 -63.1561 -15.8801 -8.32635 -23.9943 66.4457 1.12878 -43.3664 -10.7795 -92.9298 114.027
17472 2 -8.39147 -64.2188 -19.3813 -16.6702 -33.7546 2.60458 -19.4428 41.701 -30.9438 -93.4015 101.075
7703 2 -10.5826 -60.6427 -16.2143 3.97968 8.34027 46.2979 59.3333 -17.0942 12.7256 -95.5694 116.4
4802 1 -11.9918 -64.5754 -16.2082 52.8388 41.3739 -125.353 73.6932 59.5746 59.3016 -351.02 259.481
5182 2 -11.6045 -60.6817 -20.1685 -17.8322 -46.0739 64.558 8.90973 39.004 34.7593 -98.7144 135.423
10478 1 -11.6227 -61.5879 -15.518 29.7428 15.1097 -147.54 -109.604 69.844 19.9439 -344.799 284.458
9891 1 -7.60935 -64.73 -20.6793 4.39854 49.5449 -48.0655 38.691 -87.1009 -19.3362 -350.061 188.498
9901 1 -7.18975 -60.743 -20.019 -25.1145 21.0947 -34.5035 -137.953 9.1737 -73.9614 -347.501 276.431
7392 2 -12.7003 -64.9882 -14.7902 -52.7401 -2.39979 74.5362 -20.4007 -48.3043 -18.9503 -93.9859 147.147
15191 2 -7.67773 -59.2534 -19.5244 21.155 -10.6222 15.2541 59.7387 -10.548 57.9753 -95.1694 148.258
5141 2 -11.4015 -63.3223 -20.9935 -13.7201 -44.4019 42.1562 -11.7461 19.9752 12.6392 -98.9275 88.7024
5198 1 -7.1786 -63.6048 -15.7775 56.6762 -52.6515 -15.2007 47.2581 -120.464 41.5205 -350.125 254.297
7864 1 -2.26242 -62.7267 -19.5576 43 86.0597 -65.5347 -74.2363 25.4733 40.6924 -357.923 204.34
5000 2 -3.38 -63.8951 -19.6733 -30.9847 -34.5763 24.4487 46.8556 -13.1003 -19.8321 -88.5363 107.545
12391 2 -6.13756 -64.6868 -16.3941 -38.2553 -18.7921 19.6018 -25.4246 52.9652 -43.2796 -94.2974 136.289
12394 2 -1.85655 -61.0086 -15.6841 -13.4743 -40.4062 29.3617 15.3432 -5.46232 -58.8002 -89.0722 121.992
10087 2 -5.58005 -60.801 -19.7602 18.635 3.35855 -4.37649 43.0158 -30.3497 3.11835 -92.8239 93.5677
12516 2 -3.03996 -61.2901 -20.0886 -7.07468 -13.6591 4.41576 10.354 -14.615 -26.97 -91.3926 58.2717
12482 1 -4.14808 -60.2059 -20.2478 -24.8503 20.2357 -0.421198 -20.3362 72.6876 19.6993 -347.377 140.654
5060 2 -6.43338 -62.2942 -15.0308 -52.0836 54.0234 18.5601 -26.9184 56.8571 10.2076 -92.6197 144.7
29843 2 -5.9998 -64.6347 -20.4168 0.899142 -44.7867 28.0902 -15.8564 13.3699 3.00523 -91.1043 73.3922
15055 2 -1.66938 -62.1332 -18.1812 -17.7041 -60.1018 53.6858 32.5862 20.7191 -41.4993 -87.5628 139.86
10071 1 -4.51797 -65.1135 -19.9153 76.4396 104.357 -121.878 -30.9805 28.0138 24.1296 -355.689 229.404
12297 2 -0.976367 -63.4006 -20.3961 -2.20881 -73.049 15.2868 16.0816 -17.5337 13.1269 -87.3659 93.6958
10306 2 -0.710396 -59.6346 -17.5877 13.4203 -58.8908 34.7527 2.45064 35.1689 -40.4439 -90.293 125.945
7766 1 -0.94881 -61.1504 -17.0483 -12.6966 129.238 -88.953 -47.3832 -44.6111 112.626 -357.921 295.877
7677 2 0.590647 -61.5621 -16.619 23.3547 -83.1284 5.88899 24.0164 17.5253 -64.846 -88.29 158.274
12865 1 2.05152 -61.3112 -15.9701 -94.7815 131.302 11.7667 2.91606 -12.1113 142.084 -355.907 315.288
7615 2 3.22296 -62.3688 -16.5492 17.4003 -86.2196 16.5621 2.87764 -10.0497 -37.631 -89.8931 123.398
15077 2 2.39393 -59.7592 -16.3739 50.8247 -58.211 -19.891 -7.59744 16.1181 -32.8804 -89.8972 115.65
5180 2 3.18983 -64.1982 -20.4154 -11.0815 -68.1504 33.3004 10.9235 52.0423 -42.2276 -85.2789 146.943
27366 2 4.17706 -64.4044 -18.0331 -28.6738 -35.8061 13.201 30.7616 -2.14649 -0.374473 -86.6449 70.3996
9796 1 4.62416 -63.1307 -17.0487 15.5408 138.737 -52.5361 -55.9591 11.2505 31.5177 -355.058 202.368
27362 1 3.64934 -65.344 -19.2161 40.8166 69.22 -32.4283 -31.3324 -7.51407 87.4671 -366.06 185.251
24780 2 5.41254 -64.0328 -15.9128 3.43674 -53.6968 24.8306 20.9922 -12.1421 -16.6442 -90 86.8311
15359 2 5.5187 -61.8821 -17.7296 10.74 -76.7156 12.0531 35.7967 -8.57009 -51.1061 -91.1618 140.232
17463 1 6.51001 -60.6008 -17.7233 -30.5442 139.874 -107.969 -44.9942 35.6973 69.285 -348.135 269.312
10074 2 6.85429 -60.2032 -19.2507 27.7323 -99.323 70.1429 4.84897 -12.6551 -36.506 -93.5455 166.971
15297 2 7.82512 -60.9344 -16.8376 -8.90867 -49.0858 52.1139 -1.46863 -53.5904 -11.5737 -94.4851 129.668
15340 1 9.29753 -61.1367 -16.1038 94.1806 34.8402 -149.898 75.9485 181.424 -8.33417 -349.08 406.04
12291 1 9.36793 -64.3431 -15.3802 -12.4931 96.0134 -91.7926 152.144 145.371 15.8144 -353.636 400.323
10003 2 10.1178 -61.926 -19.6231 -19.2675 -26.5862 6.49647 -53.1152 -48.6072 -34.6793 -97.5815 141.653
20073 2 9.29505 -62.667 -15.474 -28.0535 -16.165 60.752 -67.5349 -75.3718 -8.74723 -91.2101 194.749
24967 2 9.65131 -59.7547 -15.2551 -51.3527 -38.663 92.7153 -1.11414 -67.0587 13.8708 -93.4296 182.099
19977 2 10.3578 -61.0361 -17.301 -19.6597 -20.1985 40.2483 -49.6804 -100.535 3.12898 -93.4442 203.414
24673 1 10.6688 -60.6323 -18.8788 6.01182 44.2207 -23.012 112.659 131.826 3.41749 -340.582 306.035
15076 1 6.74026 -59.525 -20.7264 -102.985 214.273 -130.178 3.56881 -27.2961 73.0017 -346.18 358.163
22469 2 9.59353 -65.1962 -16.7355 -4.41384 -34.2559 22.4659 -46.7292 -57.9066 -13.4465 -91.5642 139.886
22372 1 10.56 -63.1714 -20.5568 70.0638 40.4189 -25.2684 21.7288 -4.66584 115.17 -340.54 220.035
17399 2 7.8462 -64.9043 -14.929 34.8122 -54.5738 13.7959 -30.2953 -60.8365 0.483416 -89.443 142.865
7556 2 9.40868 -64.3412 -20.8153 -31.6048 -6.60712 4.44625 35.2678 11.3915 -41.3345 -91.9585 101.34
19872 2 11.7811 -63.9846 -19.8588 -4.73015 -12.7562 -25.3049 -26.8116 -11.172 -69.1318 -97.7215 131.115
10082 1 13.6184 -61.4921 -18.9334 -103.291 53.1925 84.4996 12.83 -44.1807 34.785 -341.95 200.863
22760 2 12.2299 -60.6352 -19.1537 32.8516 -19.5528 -31.969 -30.4912 -20.2375 -0.486681 -97.321 87.0032
12295 2 13.1328 -62.8281 -18.0558 39.4569 -15.0554 -39.8261 -19.4262 -1.19182 -61.8654 -95.3061 132.491
12475 2 14.6568 -60.6339 -18.0934 47.4032 -6.47358 -43.4197 16.5576 57.3647 23.596 -93.1084 136.467
27373 1 16.1412 -60.2578 -17.5446 -17.9019 -11.956 86.6915 -20.7872 -124.209 -28.9051 -348.746 245.844
19766 1 12.7237 -64.3052 -18.6158 -47.8332 31.3012 96.9245 69.3743 36.4514 167.638 -339.87 344.229
22185 2 14.3198 -61.9631 -20.3047 36.469 -59.0548 -12.9057 -27.7928 -14.6027 -11.5967 -98.2135 101.028
24665 2 16.166 -64.4308 -17.4188 41.0568 -45.4071 -8.61114 24.7524 46.0036 -19.3804 -93.9335 122.32
29878 2 16.5681 -61.7338 -16.8388 -3.68777 -0.0113446 -25.3362 1.51811 66.358 -28.967 -91.9317 127.656
12683 2 14.1 -64.9808 -18.9725 -1.68155 -17.8873 -20.3956 -27.7017 -26.6053 -47.7764 -96.784 107.624
16904 2 11.7943 -65.3163 -17.7611 -2.96875 -31.2682 -24.834 -32.8714 -25.3372 -73.1306 -96.7101 147.892
2320 1 17.0148 -63.2701 -16.5229 -54.6744 62.2159 -12.089 -15.4641 -105.111 31.5182 -349.688 217.581
14899 2 17.0539 -63.4042 -14.9196 3.32419 -75.0976 55.8544 18.9206 25.4329 -26.5794 -91.2745 134.769
17652 2 17.2027 -60.1878 -18.8429 11.6489 -20.4658 -15.3343 10.6382 44.3502 31.1325 -94.3606 100.204
17473 1 20.6808 -59.8224 -16.7173 -14.2784 -32.8001 48.9064 55.2768 -110.54 -24.0337 -347.046 230.352
24583 2 19.5204 -60.0088 -17.8956 4.5321 -7.34424 -18.3228 -10.3635 66.8993 26.1751 -93.3254 127.264
20072 2 20.4543 -60.602 -15.2957 -7.64679 23.4524 -23.4177 -0.301178 41.8304 -0.652865 -94.3029 83.4101
27659 2 18.5579 -63.678 -16.8918 33.2334 -51.8407 -7.79268 -11.0099 19.5083 18.8822 -93.8523 89.4733
25258 2 22.0958 -60.2651 -17.3002 27.4312 -10.6431 -29.3986 -19.2856 21.4535 11.5958 -92.4506 73.5899
15051 1 18.735 -59.8987 -19.3615 26.1832 -17.5427 -2.887 33.8251 -86.4202 -85.7449 -349.506 222.217
29796 2 21.1095 -63.9732 -16.9676 -2.55251 -19.8528 -6.92123 -15.1454 26.8463 30.403 -95.8421 76.5909
20154 2 19.511 -61.0108 -20.2297 -12.4898 -18.1986 33.1536 -36.3311 24.6036 55.9472 -91.0341 132.449
27085 1 19.7376 -64.7639 -17.087 -112.043 112.165 -19.4981 62.9867 -26.792 -18.3964 -344.352 230.554
29945 2 20.479 -63.7514 -20.3269 -8.0339 -46.1366 39.3676 -43.4303 23.3887 -9.16228 -92.6121 114.264
22370 1 22.6639 -63.9199 -16.7387 10.3088 20.2837 17.2804 -17.952 -51.9856 -76.0111 -344.972 162.745
75 1 20.5497 -65.3998 -19.9744 7.10081 131.291 -99.6174 69.4465 -62.4897 -28.5272 -348.45 262.088
24885 2 22.9447 -64.1797 -15.1359 4.68784 -33.2592 10.3819 -5.66523 28.9406 13.7229 -95.9006 69.7309
24941 2 19.8125 -65.4014 -18.5839 23.7856 -70.7715 22.5526 -31.3774 29.6381 10.5312 -94.1815 121.44
27487 2 23.4013 -62.4481 -17.0661 6.93707 4.74162 -20.8121 18.0158 8.98173 23.3418 -92.5246 59.7005
24865 1 23.6177 -60.777 -17.1003 -51.024 50.5493 22.9059 -14.5201 9.54782 -6.79102 -350.331 96.5287
2795 2 24.0701 -60.3901 -15.6074 17.0673 -21.0832 -32.4406 -6.59071 16.9447 18.3083 -94.298 63.3641
27557 2 24.4815 -59.8587 -18.2412 26.5871 -48.5811 4.52874 11.3746 -51.4512 -9.45144 -90.2972 114.353
25254 2 28.1245 -64.3863 -18.2176 0.279302 -11.1602 27.2294 16.9153 3.39921 14.056 -94.0091 51.49
2477 2 28.3339 -59.9106 -19.9274 4.395 -19.4253 -12.8912 -27.2318 35.8889 21.069 -94.8266 88.7408
2607 1 28.6282 -63.874 -19.6442 21.2632 -26.9887 2.96237 -34.6758 -97.0734 -26.5868 -345.376 189.15
27631 2 25.9712 -59.4716 -20.5629 1.27244 -48.3434 23.2695 -24.2309 -7.65807 46.5326 -91.6907 111.67
29684 2 27.337 -64.7863 -15.7832 35.7442 -35.5115 23.1439 -15.98 -46.6576 18.0508 -93.9143 112.306
69 2 27.7157 -64.7395 -20.7284 -19.9067 0.194756 0.379276 18.8376 66.3762 9.98299 -94.2562 122.429
18044 2 28.8185 -60.9787 -14.9904 1.86521 5.06247 5.3983 -19.2795 -68.8829 -1.62623 -92.639 123.972
27424 1 28.5036 -65.1339 -16.8489 5.83702 14.9542 -66.4371 -19.9803 52.5637 -42.7558 -344.355 144.694
2598 2 28.863 -62.2903 -19.5554 -9.52894 9.75562 -16.7264 -6.33237 41.8244 -1.9447 -95.1818 77.0842
22579 2 23.0365 -65.3354 -17.4908 -5.69653 -46.1947 -15.2755 -29.1298 16.0432 50.1345 -94.617 110.463
25243 2 34.8404 -62.4377 -19.8287 66.8482 -33.3159 -48.7843 -21.8322 -3.33351 27.6419 -95.9342 124.808
27200 2 34.8319 -62.5223 -17.1955 51.3224 -17.795 -17.5026 9.21205 9.19964 -18.8031 -96.3131 79.5377
25055 2 29.3733 -60.754 -17.4591 -4.48818 9.88335 5.12033 -15.7376 -32.7915 7.6676 -94.6607 65.6201
27458 1 29.3759 -60.7745 -19.1037 -30.0488 6.00039 33.6216 25.4374 -33.2175 -3.34561 -343.29 91.3409
29778 2 29.9163 -64.4226 -16.3545 -7.86957 -24.1617 -2.73985 -1.06531 -36.7832 -0.028286 -96.7966 66.6164
29808 2 30.0679 -64.4539 -19.7815 2.21736 4.82007 -26.9839 19.9804 37.365 21.9336 -95.9534 88.1183
4744 1 30.0515 -60.7313 -15.9927 0.55557 -42.4994 12.1977 16.3007 104.176 5.07009 -348.843 189.534
5309 2 32.3346 -64.5243 -16.2123 46.4944 -28.928 -3.09895 14.2094 -3.19201 5.83354 -94.9365 71.7354
2536 1 31.0554 -63.7604 -15.5433 -46.4332 75.2099 -35.2886 1.225 25.4431 9.10404 -344.551 125.542
25246 2 30.8353 -60.1868 -19.2806 38.7708 -22.658 -39.7778 3.85838 5.04448 -3.81908 -97.0292 72.6842
5117 2 32.5999 -63.6591 -20.4906 50.2064 0.308582 -62.1193 29.3136 -17.6938 7.77841 -93.5095 114.894
27543 1 32.2422 -59.579 -19.8022 -101.632 57.0181 71.7425 36.9702 -30.7166 22.2738 -340.535 190.11
198 2 31.0169 -62.1008 -15.7822 30.8081 -7.17144 -43.5223 0.388939 -19.9934 -37.3304 -93.3876 97.5948
2514 2 32.9021 -60.9546 -20.392 34.7929 -38.6906 -45.1559 -17.469 11.345 -0.637906 -96.9213 84.968
2308 1 31.6343 -64.8985 -19.951 -60.5142 -17.3362 91.0796 -39.0985 -20.8297 -44.7075 -346.253 173.734
7527 1 33.5308 -62.4054 -20.7956 -94.8863 60.0304 80.8847 11.2403 33.1212 -27.4621 -345.931 183.296
2782 2 -19.3024 -59.0188 -17.1714 66.5321 -57.2387 4.12934 14.8439 16.4571 28.5446 -95.7465 124.127
25098 2 -23.7628 -58.4705 -15.4871 30.9637 -50.1955 -6.03016 -40.3437 -10.2253 38.3344 -96.3447 120.657
2619 1 -21.0504 -58.6172 -20.2731 -121.438 114.491 -8.63423 70.0988 101.32 94.165 -345.387 337.511
15105 2 -20.5571 -57.7736 -18.9621 62.881 -68.2814 9.41289 -14.6523 -17.4627 -8.11501 -93.8326 121.679
2875 2 -21.6863 -57.5907 -16.7748 107.358 -55.793 -30.5807 -23.0726 -7.14624 29.324 -93.9764 165.742
5091 1 -23.2378 -57.3084 -16.5512 -118.938 70.7251 65.0983 55.6457 47.9937 -56.9164 -343.48 246.687
101 2 -24.3887 -57.6359 -17.71 27.8265 -21.4136 -26.0579 -25.2556 -19.6472 5.21824 -97.4337 76.3421
2959 2 -23.1707 -55.6818 -16.2657 45.6066 -36.9016 -21.6497 -11.3981 -11.6996 10.8628 -93.0885 83.2839
2509 1 -23.2647 -54.0607 -15.8858 -75.4589 102.736 -16.1008 -34.4456 -7.54292 19.5328 -353.928 171.972
98 1 -20.13 -57.6357 -17.433 -182.766 115.919 31.0381 -19.1838 -28.2951 -47.9911 -347.46 285.447
4962 2 -23.4186 -53.6339 -19.9297 13.978 -42.8654 1.84799 -0.992528 -47.4362 -42.1855 -91.1932 121.578
29949 2 -24.7861 -53.6354 -16.3009 45.5085 -57.2478 -4.37786 -10.1274 -11.9191 -18.4352 -91.3468 98.3607
85 1 -24.8123 -54.4623 -20.0946 -46.6528 70.2573 6.08708 33.1818 71.0311 67.8471 -350.059 206.234
5207 2 -24.4898 -55.9574 -20.6746 25.9237 -12.8608 -9.18437 -20.8826 -28.5511 -28.1729 -92.2739 86.6605
27833 2 -22.4307 -57.9582 -20.8123 63.1034 -53.3939 -9.59281 -33.2705 -42.2893 -64.8377 -93.0546 178.003
2986 2 -19.283 -56.3093 -17.0282 70.7442 -49.0965 -29.8962 10.1326 12.6952 9.4559 -92.0284 116.143
147 1 -15.4393 -58.3399 -18.3973 -79.0532 72.9145 -84.4772 -35.5204 -5.62512 -37.6336 -343.648 179.1
7486 2 -16.1238 -58.3998 -16.8753 29.8255 -64.5042 49.1782 11.8813 13.5082 14.1093 -96.2154 112.545
10169 2 -13.9385 -57.9416 -18.0244 56.447 -64.328 43.43 27.5909 7.30725 1.60755 -96.2269 125.043
182 1 -15.8884 -58.3324 -15.2845 -68.4515 128.91 -83.9484 21.1622 -60.6166 -40.6605 -340.446 244.083
7879 2 -18.5557 -53.6445 -16.4855 0.934034 -7.05249 -11.2633 -37.2087 -8.53433 -1.94263 -89.183 67.0704
162 2 -16.7348 -55.3127 -17.4354 -3.39518 -53.1846 35.4496 -16.8724 -28.3851 -37.1719 -93.0556 115.492
4982 1 -18.1041 -55.2699 -16.4664 -13.5928 50.6474 -9.1273 54.9435 -0.172482 34.4111 -350.626 128.33
2911 2 -16.1378 -57.0424 -19.1293 17.7839 -32.7258 32.2189 13.4893 3.43557 -10.7458 -94.5503 66.4561
100 1 -16.1731 -55.4279 -18.9404 -22.7338 99.4789 -45.5933 -2.35401 32.3896 106.899 -347.052 236.005
2650 2 -14.6602 -54.7977 -19.4872 54.6605 -60.1977 -8.35039 8.40932 7.1682 -53.4939 -94.3834 137.392
27596 2 -17.2058 -54.6071 -19.8894 3.08645 -54.2716 24.8308 -9.92332 6.35454 -30.5406 -92.9189 90.6903
5378 1 -13.4986 -53.8492 -20.1215 -116.694 126.398 -11.1054 -37.821 -29.1027 79.9611 -345.23 265.685
22938 2 -17.8387 -55.8789 -14.9959 19.9056 -66.1401 11.8078 -20.5482 30.8188 -1.11649 -94.1828 104.367
2762 1 -12.0163 -59.2413 -20.8188 82.9924 5.12578 -148.178 -62.5947 -47.3256 -82.4515 -339.815 283.497
7501 1 -10.1808 -59.0602 -16.4324 -36.3623 50.439 -70.3379 -124.944 0.75825 -45.1777 -334.583 254.156
5119 2 -8.73085 -58.7918 -17.1562 10.0348 -30.1659 7.31003 42.6169 1.66606 31.3375 -101.212 99.5844
2813 2 -11.2782 -58.3572 -17.3762 22.3914 -59.1762 27.1894 61.4766 29.7158 23.2732 -99.5889 150.598
10123 2 -10.4791 -58.4112 -14.9715 36.5287 -63.7756 46.9083 69.17 -17.8106 -17.4192 -101.678 165.606
7651 2 -12.1418 -58.1124 -19.7046 -18.8108 -16.3466 73.2295 37.4329 34.9937 38.924 -96.4293 143.782
7575 1 -7.70706 -58.1928 -18.2621 -30.2356 64.3211 -46.0493 -85.0762 79.4904 -78.0712 -334.389 263.897
7786 2 -12.5608 -53.6648 -18.8183 35.5354 -47.2686 1.80173 39.7694 44.8639 -6.16057 -94.4319 126.879
2510 1 -12.3479 -57.5022 -18.1959 -77.2936 107.981 -85.2276 -84.6151 -87.3557 5.25436 -339.652 283.399
29947 2 -12.1465 -55.9501 -17.8033 43.8743 -45.4768 25.5506 40.9628 49.5313 -42.8613 -97.5313 156.803
10381 1 -8.49547 -55.1632 -18.1402 -75.0072 63.945 -65.2468 -23.0329 -0.727829 124.178 -330.949 256.711
5221 1 -11.5345 -54.4368 -17.8101 -15.97 13.7081 -54.1929 -69.4881 -108.533 55.891 -340.527 250.342
5106 2 -10.0391 -54.7157 -18.3946 4.47689 -14.9201 35.9079 18.3872 44.1331 -57.0067 -99.6631 136.311
7690 2 -8.27153 -56.6612 -18.6055 41.693 -48.9324 42.0037 33.9513 -12.1717 -16.6739 -100.744 113.92
5266 2 -8.41951 -55.2501 -16.5092 0.818616 -35.4408 21.3379 9.93599 -6.64889 -36.4185 -105.544 82.991
5211 1 -8.73857 -55.8339 -15.0758 -14.1776 96.4306 -82.0629 -58.1099 24.4792 33.5114 -323.041 199.119
114 2 -8.01375 -57.1941 -14.891 -1.54975 -73.3782 47.7539 25.9628 6.9652 -35.8057 -106.066 130.941
17969 2 -7.29567 -54.2345 -18.5136 28.7317 -51.1971 35.6994 1.9695 -36.4675 -96.4507 -101.364 197.24
258 2 -11.43 -53.3292 -16.6606 -18.476 22.853 37.71 13.3411 1.65622 6.90975 -96.201 56.8178
12465 2 -10.3387 -56.0227 -15.01 31.7215 -48.5945 46.894 34.9397 -26.8959 -13.8279 -102.983 119.606
10111 2 -4.006 -58.843 -19.3506 10.3086 -27.4728 21.2602 -2.03935 -41.2733 5.91779 -96.1952 84.7887
5273 2 -6.12037 -57.8115 -18.0912 1.84048 -46.9175 33.5326 33.0645 -80.6409 16.9478 -100.967 169.048
27648 2 -5.08185 -54.4428 -19.7805 -14.0273 -24.9932 44.9288 -2.92041 -28.707 -38.46 -101.621 105.726
10274 1 -2.0235 -55.7201 -18.2712 -75.0319 122.033 -71.4463 0.842893 -63.9764 -14.0918 -343.656 225.871
7858 2 -3.46514 -56.4848 -18.2767 47.7377 -86.2643 29.8061 -1.82384 -18.2479 2.91568 -98.7133 130.037
7707 1 -4.71034 -57.4302 -18.8725 -15.9754 107.265 -70.1763 -28.4992 133.898 -29.3609 -334.909 289.161
12772 1 -5.71192 -53.9133 -18.3128 -20.0628 59.8716 -74.5373 -26.0969 74.1873 124.253 -331.903 280.325
12671 2 -5.2963 -54.7796 -16.9642 26.3476 -88.6916 47.9592 45.9509 -35.7858 -26.0956 -101.736 168.542
12611 2 -1.9758 -54.5555 -19.5344 19.6299 -16.0494 25.0814 34.4183 3.0207 1.06129 -95.7684 71.2871
10158 2 -5.29114 -56.7658 -20.2634 -28.6942 -45.3086 46.1987 8.3902 -43.7412 5.75477 -100.284 114.803
12949 1 -5.17113 -55.3545 -15.4108 -99.2605 191.672 -137.497 -100.284 -27.5345 25.9358 -333.763 362.893
17867 2 -1.57434 -54.7525 -16.986 8.72637 -52.594 38.9534 26.9133 45.7817 -5.00632 -93.9435 122.733
12860 2 -5.63386 -56.9398 -15.1098 23.332 -67.8828 54.3191 26.9797 20.154 -43.4335 -101.362 145.494
15348 2 -1.04237 -56.9844 -18.3981 28.1436 -84.6687 42.1254 -36.2064 32.0385 15 -93.3975 148.951
17814 2 -0.392188 -58.9686 -20.0338 26.2121 -98.413 50.9164 -9.79595 -11.7795 -20.3658 -92.7512 145.496
22455 1 -0.209041 -58.348 -18.5026 -48.2955 200.504 -113.841 50.8382 -66.6094 26.3705 -351.529 325.047
17852 2 1.33073 -58.1282 -18.0806 52.4678 -133.895 57.2922 -23.9993 29.8275 -11.7226 -89.8033 201.153
12483 1 -0.443386 -53.9266 -16.0806 64.1113 17.8028 -45.5427 -56.4949 -83.9485 26.3306 -351.525 204.664
17571 1 2.4967 -58.216 -16.9666 -151.11 222.101 -4.88176 17.4312 -46.3224 -19.9847 -355.546 338.589
20250 2 0.553592 -55.0538 -15.4472 17.2088 -47.1955 -7.62164 -30.2548 50.722 -3.08238 -90.107 116.867
17950 2 2.04257 -57.2752 -15.796 68.7681 -106.025 -6.74649 -11.426 36.443 34.6121 -90.0197 176.14
17541 2 3.94734 -57.7098 -17.4545 74.7745 -122.069 44.6792 7.04287 5.09176 11.6108 -89.2815 185.365
10542 2 5.94618 -59.1722 -17.1004 11.7957 -71.816 64.259 14.9857 -4.33798 -2.32838 -93.8671 121.968
15162 2 10.2423 -59.0839 -19.1634 1.17352 -42.741 47.2506 -33.3624 -47.3193 11.1094 -97.0438 128.459
25067 2 5.82726 -56.6233 -15.8141 -14.5245 -80.7435 67.5296 -8.15243 -1.7338 14.2452 -94.1608 131.79
15073 1 5.57799 -57.5883 -17.0494 -43.434 185.869 -144.239 -23.2597 18.1861 -34.4633 -349.86 303.372
20411 2 6.18095 -53.8307 -15.6484 -88.41 31.941 16.8805 0.781806 -44.5714 -65.2373 -90.1894 177.843
19962 2 6.64366 -56.8952 -18.1418 -29.7628 -72.869 103.326 2.60219 -17.5816 -12.4376 -92.5998 163.461
20074 2 9.00021 -56.9161 -19.6463 -5.60187 -62.3761 79.493 -28.2207 4.12363 -2.6285 -95.0505 133.254
15441 2 9.60707 -56.9393 -16.0225 -22.9707 -94.9928 63.9469 27.5653 -49.9878 3.5915 -95.0933 169.754
15184 1 7.33302 -56.6362 -19.5206 60.903 100.415 -215.226 21.6782 -33.5163 46.3006 -348.007 316.117
15246 2 10.0949 -54.3533 -17.3776 -21.4492 34.0708 -10.1187 -17.7765 -1.27342 -11.6789 -89.0541 62.8001
24866 1 10.5252 -57.5029 -19.4608 -22.5285 136.042 -122.589 26.4364 50.8687 -35.4392 -344.106 254.265
17682 2 7.10771 -55.2769 -20.362 -52.1802 -24.7418 75.8551 -27.12 43.9932 -15.2185 -93.0431 149.467
12646 2 6.67091 -57.886 -20.3527 6.43756 -78.181 75.5766 -3.69489 36.4175 -38.199 -94.6027 161.827
24784 1 10.6649 -55.9029 -16.7841 -19.126 126.062 -49.2692 -51.3052 33.662 -19.0056 -351.757 196.836
17593 1 9.13276 -58.1525 -14.955 90.6398 172.276 -172.046 -50.8031 125.238 -8.71132 -340.863 390.048
17679 1 6.04662 -55.2887 -14.9133 93.7245 70.5018 -80.8353 25.2672 47.2007 65.5891 -347.252 220.14
12581 2 11.0779 -56.7077 -18.1073 7.9322 -92.136 43.6285 27.4492 -22.2634 36.1934 -92.7899 150.124
27586 2 16.0007 -58.7425 -16.8467 -1.22587 -9.41241 -46.3239 2.79055 33.7654 44.3368 -92.2552 105.226
17987 2 11.9248 -55.5103 -15.8366 53.5351 -88.4276 -2.27484 49.0057 3.7534 18.3489 -89.0911 153.63
17596 1 15.2425 -56.0133 -19.7047 -23.3586 59.6613 -15.577 -67.0684 -88.8203 -1.1763 -350.498 208.501
17771 2 15.249 -56.4295 -18.1296 23.5897 -51.1272 -1.41726 20.8536 25.5934 23.842 -92.487 96.5118
17560 1 15.6562 -57.1287 -16.6709 -64.4022 114.818 35.5664 -25.1111 -23.4179 -127.722 -350.241 276.898
17289 2 14.7042 -54.4462 -19.9927 -7.69499 12.2152 -3.57342 32.267 32.5144 2.33192 -89.4958 81.5027
15402 2 14.4904 -56.418 -15.7469 49.9377 -100.152 -8.36087 25.6065 -27.0782 59.8967 -89.9269 179.18
19764 2 14.2847 -56.9749 -20.5568 31.2948 -42.3438 8.88138 39.4921 52.6811 10.7947 -93.4674 132.774
19915 2 16.8206 -56.3354 -20.0452 -9.66875 -32.4474 15.0684 17.5437 44.3699 -5.67337 -93.2175 92.8452
12662 1 13.3814 -55.502 -15.0325 -115.36 188.197 14.4901 -111.463 26.2865 -68.0269 -357.934 350.455
17592 2 11.6069 -57.2881 -20.607 26.1344 -71.4808 24.3849 -4.87671 -19.4232 -3.67063 -95.47 102.978
12510 2 16.9858 -56.4432 -15.9562 26.397 -39.3816 -16.6353 22.4093 34.3705 67.8845 -93.6273 149.075
25062 2 18.6929 -58.3785 -19.9821 -37.1163 2.27868 -0.105015 9.84922 46.2431 12.9132 -92.1805 93.1143
89 2 20.6835 -58.2361 -16.4838 -31.0053 20.3498 -24.2552 -39.2641 66.0258 25.8563 -94.9922 148.476
17362 2 19.5975 -55.8938 -16.3195 -37.3149 2.23951 6.78415 -11.196 41.652 24.1541 -96.8029 95.3727
27103 2 20.7905 -53.6942 -19.177 -55.1611 44.5417 -0.955776 -1.20835 8.15639 8.42635 -90.8046 88.8336
17572 1 20.9233 -55.3481 -19.5484 26.5416 41.6998 -18.8304 20.1429 2.10449 -10.9736 -354.822 67.5863
27667 2 19.5105 -55.9273 -20.1043 -31.2398 -31.9474 35.8331 20.0502 35.8879 -7.4574 -91.2209 98.9112
22861 1 20.9029 -56.6577 -16.7744 58.5875 -3.25591 -17.4208 48.8734 -72.9864 -37.0817 -345.06 179.369
25037 2 21.1849 -56.2075 -18.2165 -12.0597 -21.9953 -2.5564 -14.5889 0.67266 2.61224 -92.2978 30.7211
24872 2 22.1228 -56.2142 -15.8397 1.27842 -4.60269 9.5051 -33.8906 35.5364 25.9063 -93.5428 96.9447
22742 1 18.2658 -55.6166 -15.3502 19.3077 29.7594 -11.3373 11.1058 -67.2674 -67.7912 -343.371 170.588
24950 1 18.2803 -56.8589 -20.515 63.4103 53.172 -89.5502 -44.5799 -78.4856 21.0155 -350.847 218.409
25160 2 22.2735 -55.7369 -20.4665 41.1513 -64.8434 17.1592 -36.2273 -18.4138 2.09236 -86.5859 119.311
17842 2 17.905 -54.035 -15.3654 -31.6132 29.3087 -6.30874 -1.19313 9.20508 -7.40775 -95.0983 56.862
22563 1 25.2006 -58.7845 -19.2574 -28.5976 84.3472 0.26032 15.3733 64.881 -20.8861 -353.462 158.039
25054 2 26.2075 -57.7524 -18.5795 19.2326 -30.6986 -14.2525 6.62847 -5.88877 13.0714 -92.4937 51.8734
22841 2 24.1832 -57.5726 -19.9021 32.8957 -47.3496 -20.6296 -34.6781 -9.25334 3.38375 -88.6657 94.3824
27544 1 26.1402 -54.2216 -19.9161 13.4217 -55.6695 82.7196 81.272 -33.3177 -66.0277 -355.316 224.918
29944 1 27.0878 -56.5478 -18.0188 -33.9012 50.2556 12.4691 -15.3854 -25.1376 -19.5311 -347.504 95.2912
22581 2 26.6662 -55.1628 -18.6633 9.60158 4.83134 -32.7716 -22.5133 20.0538 16.3257 -92.2168 71.7128
7414 2 27.1387 -56.5088 -16.433 14.1344 -35.2715 10.166 13.7361 -30.134 7.43616 -93.4492 75.609
27574 2 24.6913 -54.9158 -20.1409 25.0844 -5.57518 -45.8526 -19.1915 17.3634 17.5735 -87.4344 82.0552
22666 2 28.6741 -56.5874 -18.5229 2.26123 -22.3867 7.63488 -17.3094 1.22419 23.8978 -96.0468 58.1851
20440 1 23.7797 -56.1723 -20.5597 -85.5027 121.929 8.33084 77.5331 3.34973 -18.0616 -360.617 226.749
20449 1 27.7132 -56.323 -14.942 -25.9115 67.947 -55.0032 -23.5356 141.285 -27.3049 -347.559 275.988
25162 2 29.1307 -57.0831 -14.9965 14.5357 -28.5529 0.538288 -2.74877 -47.408 4.87674 -94.2762 91.0274
7783 2 30.6103 -59.221 -15.7668 29.1442 23.2753 -25.4264 -7.6764 -28.6461 19.7959 -92.5737 80.6619
2853 2 34.148 -58.9653 -16.3642 31.9852 -29.4305 -23.5775 -35.3884 -0.0282243 48.3431 -97.4994 119.226
2774 1 34.5215 -58.7034 -17.8998 -79.3449 40.2348 61.6757 56.5483 -39.6281 -57.9734 -337.882 204.23
12861 2 33.2663 -58.6988 -18.8174 59.7949 -24.0321 -31.4205 -29.4415 33.5471 22.7389 -97.024 123.405
22762 2 29.7687 -54.4477 -17.6106 -24.9096 -23.8554 -22.0948 -43.4511 -12.5255 16.8856 -97.1899 83.6427
2613 2 34.5669 -54.4482 -18.6678 31.9713 -56.7227 6.90311 -25.056 -30.769 -34.5811 -93.5972 120.759
463 2 33.1704 -54.8487 -16.3194 55.622 -59.8145 -14.2189 -51.0799 -11.2726 -14.7237 -95.7907 137.841
22669 1 30.1029 -55.9165 -18.1803 -25.5921 50.761 -16.7076 42.0583 23.2583 -42.5108 -340.61 132.595
22814 1 34.0891 -53.8328 -17.2065 -91.3725 110.891 19.6103 83.458 59.7849 66.9903 -348.268 275.429
12488 2 30.9646 -55.5826 -19.4397 18.9574 -61.8096 26.7687 -21.9825 -26.2276 22.0922 -95.5333 110.421
5303 2 30.7158 -56.8516 -17.0837 24.538 -17.2157 -24.8503 -28.9039 -13.4678 29.555 -96.8382 88.2687
29679 1 30.5383 -57.5599 -15.6442 -77.7503 23.6759 48.5489 38.3022 19.7518 -47.8509 -345.721 160.84
2587 2 31.6956 -56.6741 -14.8434 60.5208 -71.0082 5.85488 -29.5759 3.55643 39.7798 -94.7674 143.205
3049 1 32.9234 -55.5846 -14.8613 -90.6144 151.782 -47.6789 121.624 5.95743 -40.7293 -342.974 315.678
7317 2 31.8273 -58.5905 -21.0038 27.565 -20.9258 -10.185 -25.3322 12.4779 -33.0507 -95.5163 87.2651
299 2 -22.328 -52.9501 -16.6197 34.3525 -43.5298 -15.4545 30.1817 7.15109 -13.5918 -88.2152 90.043
34 2 -21.0456 -52.6766 -20.702 19.1703 -50.6448 17.5781 -20.0581 -28.9329 -18.2019 -90.0097 97.3539