ITEM: TIMESTEP
1040000
ITEM: NUMBER OF ATOMS
29952
ITEM: BOX BOUNDS pp pp pp
-2.5093087473165852e+01 3.5078381815859899e+01
-9.4140683394807780e+01 1.0412597773680778e+02
-2.0985542515027589e+01 3.4853395661184415e+01
ITEM: ATOMS id type x y z v_StrAtomXX v_StrAtomYY v_StrAtomZZ v_StrAtomXY v_StrAtomXZ v_StrAtomYZ c_PEAtom v_VMS
2327 2 -21.0535 -88.9245 -20.7916 -143.535 98.7756 -271.59 -95.1456 44.8512 21.313 -69.7946 375.096
27087 1 -16.6818 -88.6055 -18.41 224.839 -258.121 404.802 310.343 -99.745 -74.1618 -379.543 829.359
9700 1 -17.0543 -88.976 -15.273 358.399 -208.422 329.172 218.727 105.344 -76.2951 -378.197 707.003
7411 2 -17.0398 -89.1711 -16.8854 -173.64 122.08 -156.043 -124.104 0.00326337 22.5963 -74.7893 360.961
4495 2 -13.5887 -89.467 -20.3285 -184.133 247.697 -205.82 -113.955 105.711 51.1971 -84.4609 525.982
2196 2 -15.872 -89.5236 -19.4555 -114.44 154.663 -227.587 -177.754 56.1236 75.0339 -77.9278 486.618
4248 2 -13.7414 -90.8942 -15.8024 -239.738 234.71 -241.587 -97.9566 -75.1735 74.8093 -74.045 537.132
12116 2 -13.4131 -90.874 -18.2448 -240.81 268.902 -281.952 -124.808 1.24967 80.4756 -84.8224 590.452
4527 1 -13.2046 -91.7907 -17.0147 571.386 -624.105 583.404 169.518 99.8262 -112.327 -381.667 1263.99
7410 2 -13.2735 -88.3405 -15.4506 -118.936 177.333 -192.898 -47.7615 -47.3689 64.7179 -78.562 375.897
4519 2 -13.5452 -93.3728 -17.4351 -335.563 414.908 -369.399 -1.89675 -45.7834 -22.7823 -66.9779 773.046
6926 1 -14.0074 -89.6541 -14.7933 325.641 -287.706 365.422 196.278 138.929 -142.077 -382.557 797.629
2278 2 -15.622 -89.4416 -14.7265 -156.515 119.917 -200.266 -120.088 -82.6315 56.4544 -78.002 404.638
29775 1 -15.1397 -89.6906 -20.8805 314.284 -342.893 370.36 349.521 -181.192 -112.147 -373.688 987.216
27068 2 -12.6337 -88.4702 -18.0022 -142.931 282.193 -296.609 -45.647 28.7122 63.6301 -84.57 539.027
5069 2 -8.52739 -88.5552 -15.0479 -104.608 193.229 -274.711 -25.7999 76.7198 44.7673 -73.7863 440.423
9506 1 -9.24371 -89.0489 -16.3419 150.617 -431.163 564.788 51.1621 -177.243 -88.7428 -380.362 936.316
29566 2 -10.8638 -88.927 -16.0891 -78.7569 204.665 -270.2 -23.6721 59.8548 67.6793 -78.4271 444.306
7201 1 -12.6986 -89.6632 -19.0333 368.92 -581.103 555.678 161.368 -117.622 -158.847 -360.809 1144.63
9798 2 -11.213 -90.1654 -19.4363 -132.866 311.249 -335.54 -10.898 65.5181 56.3311 -86.9499 592.52
9438 2 -8.82366 -90.6108 -16.5432 -100.335 235.698 -289.798 -19.2471 110.61 62.9555 -75.6824 512.04
4899 1 -10.1813 -91.1202 -20.1475 99.8055 -524.99 786.542 -25.0545 -118.789 -7.9152 -364.795 1155.62
9517 1 -8.24549 -91.9552 -15.988 337.034 -472.447 592.525 15.3576 -224.077 -92.6782 -395.959 1050.93
17086 2 -9.72348 -92.2797 -19.1998 -71.8646 233.568 -432.013 -3.45705 69.1903 7.3593 -83.2341 589.54
7017 2 -11.6726 -92.3181 -17.1452 -253.556 313.315 -321.195 -49.7493 32.9044 36.2184 -77.2078 615.523
9608 2 -8.71681 -93.1626 -16.948 -158.007 274.817 -361.63 8.93426 122.162 1.89771 -67.4432 601.625
14621 2 -12.4814 -93.4167 -19.8009 -349.209 350.863 -418.52 -7.05186 101.935 -18.3162 -82.0421 758.785
12202 2 -8.94055 -90.4981 -20.8234 11.6247 269.76 -384.697 25.9783 17.0979 -27.0639 -79.2007 575.42
4816 1 -12.0592 -93.6467 -18.1868 683.637 -766.373 820.856 8.31129 -70.2906 89.4957 -383.773 1536.03
7300 1 -9.22317 -93.6075 -18.3801 247.134 -565.444 910.515 6.34567 -186.246 80.7706 -390.677 1327.84
12319 2 -8.14178 -94.1404 -19.4318 -85.4078 287.272 -496.399 -1.63975 22.7648 -44.5611 -66.4504 684.465
16822 2 -8.96157 -88.2353 -17.762 -48.4389 238.382 -305.7 -0.119919 41.7618 32.7491 -79.2263 480.299
12367 2 -6.83198 -92.0783 -20.4084 -16.4391 201.451 -414.659 -3.7629 -21.8136 5.84415 -78.8492 542.582
7053 2 -6.79213 -88.8273 -18.8353 -67.5806 229.426 -317.843 6.60914 35.7448 18.3263 -78.2884 479.734
19496 2 -6.60965 -91.7953 -16.1805 -162.405 207.632 -313.434 4.67594 49.9686 40.0655 -69.9708 477.489
14431 2 -2.70713 -88.6546 -15.9466 14.3456 159.799 -284.005 56.1397 77.8752 90.951 -70.748 453.906
16617 2 -5.16286 -88.7266 -16.6366 -63.3899 199.203 -270.106 28.4026 63.0128 54.0006 -73.139 434.797
19501 1 -5.2713 -88.6596 -18.2466 117.067 -441.134 548.16 20.7395 -116.355 -47.7563 -383.44 887.026
17008 1 -4.10882 -89.263 -15.484 105.312 -344.547 570.549 -141.244 -129.272 -150.949 -396.61 898.025
14684 2 -1.94231 -90.8058 -19.8457 -94.5858 212.771 -356.604 120.514 112.48 44.0495 -78.4125 575.328
17135 2 -4.08737 -89.6379 -18.747 -48.5511 220.298 -304.633 6.38208 52.7277 48.8826 -76.4959 471.526
17093 2 -1.44832 -90.4297 -17.5184 -15.6856 167.738 -312.252 98.3232 143.405 64.1921 -72.4373 528.254
9712 1 -2.79912 -90.6222 -18.5142 115.237 -396.541 656.948 -144.929 -148.357 -133.42 -383.937 1007.5
16881 2 -4.35076 -90.8557 -15.3054 -110.885 193.206 -313.187 56.3934 43.2698 37.166 -64.4702 462.836
9630 2 -3.52413 -92.0264 -18.0802 -130.749 224.285 -344.57 60.0986 39.8667 29.5302 -71.1865 515.657
14307 1 -5.28451 -92.1435 -15.2414 397.07 -441.147 649.608 -10.9072 -77.5835 -37.7056 -411.095 1000.37
17074 2 -1.42768 -93.2361 -20.035 -213.629 323.374 -436.103 34.7597 133.755 29.8399 -65.9097 719.238
16917 2 -4.56034 -93.321 -16.1125 -225.83 286.442 -366 -12.086 39.0015 -22.5692 -56.6801 600.338
14618 1 -4.34273 -93.4568 -17.7634 402.668 -556.31 723.791 -20.9367 -29.5181 51.2863 -408.434 1158.68
14115 1 -6.68754 -93.6772 -19.7882 151.314 -457.26 869.748 19.655 33.3235 71.6317 -395.562 1159.14
9885 2 -5.768 -93.5805 -18.5435 -143.128 245.826 -390.863 -4.82655 15.5051 -22.3936 -67.1041 557.952
7095 1 -2.78065 104.237 -20.1983 568.3 -695.967 874.645 36.3356 -139.036 1.93511 -401.831 1463.38
12185 2 -3.89123 -92.9995 -20.8324 -192.903 246.463 -422.317 9.22519 33.8691 18.8231 -78.9955 592.647
11918 1 -0.791486 -91.8208 -20.2772 270.84 -496.358 766.979 -258.316 -259.463 -77.909 -391.815 1278.96
11919 1 3.18531 -88.595 -20.4996 111.171 -138.424 378.854 -174.462 23.1415 254.869 -376.824 698.969
11929 1 3.90507 -88.8783 -15.1836 437.819 -436.95 403.81 17.6091 -6.7724 30.2201 -345.492 860.485
14694 2 3.61231 -89.0672 -18.9582 -93.2916 77.588 -161.233 34.6021 -16.7695 -143.3 -82.3077 333.866
17001 2 0.706606 -89.1938 -18.2859 -89.0639 136.612 -236.018 85.5556 140.612 -30.8202 -81.0485 435.676
12212 2 3.36735 -90.4843 -15.5421 -269.594 184.423 -283.716 -16.9289 20.7844 -38.9975 -92.2801 468.466
12086 1 0.151261 -90.5986 -17.6986 148.175 -348.548 585.29 -197.154 -415.899 -27.3374 -384.755 1136.97
12198 2 0.894303 -91.1749 -16.3628 -132.443 202.802 -325.389 63.745 193.405 -0.980412 -74.8625 581.989
12111 1 1.92947 -91.3416 -15.1643 491.983 -492.005 643.409 -80.1096 -192.159 46.5196 -373.441 1129.9
4424 2 0.218589 -91.596 -19.0622 -117.309 237.051 -344.195 121.124 194.272 23.7158 -68.3881 645.269
17006 1 4.37679 -91.9056 -15.4227 627.913 -591.526 657.085 54.9589 77.8872 74.9178 -373.753 1252.02
24524 2 2.92489 -92.5935 -15.2259 -345.857 380.549 -389.211 25.6443 49.5521 -27.4477 -72.0905 756.728
11914 2 4.89406 -88.7986 -16.3874 -153.835 178.697 -175.993 26.6515 -81.8335 -59.3916 -89.6961 388.895
6924 2 0.16834 -88.0339 -15.5821 -70.5666 206.062 -253.011 -48.8992 82.2681 29.9322 -82.8645 436.4
14485 1 4.9187 -88.9136 -18.0152 245.189 -250.381 332.233 -32.0237 194.294 296.012 -363.309 821.887
19508 2 5.33397 -92.0871 -16.6961 -271.648 306.992 -369.658 -50.1319 -115.672 -24.7933 -73.3678 671.317
12010 2 8.12413 -88.3763 -17.9579 -131.611 185.16 -188.294 36.969 -54.5357 -66.2326 -79.5134 384.311
19784 2 9.75184 -89.3055 -15.9473 -109.712 166.869 -201.643 25.1918 -0.474847 40.242 -70.873 342.254
19227 1 8.87627 -89.6382 -17.219 267.237 -393.647 459.301 -23.2669 118.754 1.06768 -387.092 802.822
14443 2 5.76629 -90.2861 -18.3335 -151.071 156.306 -266.928 -28.2181 -122.667 -117.06 -79.2288 481.824
22211 2 9.50814 -90.5611 -18.3413 -155.36 220.637 -290.367 -65.4949 -126.756 -14.735 -70.0454 521.617
12321 2 7.61481 -90.5682 -16.7157 -132.198 192.527 -277.148 -4.40198 -116.417 -28.5974 -74.958 465.507
16815 1 6.56135 -91.4373 -17.621 363.595 -497.538 713.323 80.0576 332.196 111.999 -388.738 1246.17
17104 1 9.13844 -91.9505 -19.1864 433.913 -536.078 739.897 176.137 337.917 109.348 -406.093 1342.69
19786 2 7.59856 -92.199 -18.6187 -216.876 311.746 -412.597 -56.0049 -173.31 -29.7386 -63.2347 723.452
9800 2 10.1784 -93.1206 -18.8383 -239.447 319.808 -436.127 -56.6535 -118.801 -54.5572 -58.2302 722.734
19292 2 9.40106 -91.664 -20.774 -255.097 257.981 -284.628 -77.6459 -156.833 -102.759 -63.2325 634.687
19425 2 14.2238 -88.3854 -16.2937 -148.822 183.687 -190.183 -42.6951 -36.6867 -17.9146 -74.5647 369.452
1824 2 16.5164 -88.6091 -15.3285 -176.217 193.409 -213.4 -8.38459 -41.1491 -39.0592 -77.331 402.017
19405 1 15.0081 -89.1867 -15.1124 359.157 -431.504 428.868 72.51 113.844 65.193 -384.783 867.483
14741 2 15.955 -90.2967 -20.0579 -208.364 208.534 -173.015 30.6429 -14.3093 27.9284 -73.4475 407.538
19505 2 14.9995 -90.7654 -14.9893 -243.197 233.035 -239.789 -2.25111 -37.2962 12.4609 -69.8266 479.416
19580 2 12.4463 -92.0527 -18.0946 -205.652 239.707 -283.993 -23.0462 -36.2934 -15.0413 -63.6845 495.576
24569 2 14.6229 -92.9929 -18.8417 -348.897 255.172 -260.665 31.0007 -59.0001 -36.9203 -63.9158 580.346
17050 2 14.2305 -92.8569 -16.0761 -331.961 246.162 -258.637 35.0865 17.7633 13.4439 -59.0029 549.904
19683 1 14.1716 -92.9605 -20.4679 584.531 -551.689 620.11 -13.2628 239.816 147.132 -402.469 1253.27
12302 1 13.6946 -93.0396 -17.5132 638.656 -506.033 533.787 -77.843 19.1187 21.352 -413.487 1105.4
12364 1 11.7473 -93.3126 -18.8947 520.691 -578.814 815.713 42.2806 154.827 124.325 -415.087 1320.6
17205 2 12.5926 -93.3546 -20.2686 -297.608 304.551 -371.276 -10.795 -86.4134 -77.3981 -60.8805 673.131
16637 2 16.9023 -89.8301 -17.6663 -219.577 191.335 -145.553 16.0194 -29.3032 16.0628 -72.8231 384.748
14294 1 14.9125 -92.3778 -14.6975 602.386 -541.163 535.006 -47.75 18.5255 -25.8035 -412.579 1115.82
21994 2 16.3528 -93.0854 -14.7075 -300.814 298.236 -332.332 30.3795 0.216257 -10.9385 -57.6808 617.951
29496 2 14.0571 -91.4474 -21.0878 -213.106 217.267 -264.329 -37.2478 -78.3789 -74.2168 -72.7138 499.005
17077 1 17.209 -90.5381 -19.0837 440.053 -385.338 276.609 -123.976 2.59533 -56.2844 -391.185 792.914
22012 1 19.795 -88.1724 -15.1076 179.692 -353.198 418.008 -67.7068 54.1186 91.9814 -384.982 718.111
14416 1 17.3805 -88.6152 -16.6936 334.677 -377.809 381.121 -4.62735 83.3304 22.6388 -382.631 751.876
27201 2 18.8813 -88.6734 -16.3448 -119.955 177.309 -215.402 28.0433 -32.3901 -20.3903 -75.2932 364.147
29298 2 21.5427 -89.5545 -18.2888 -186.445 185.248 -207.259 130.089 53.311 -88.5463 -72.3971 478.688
27070 2 18.3361 -89.7852 -19.9697 -208.41 193.777 -153.778 90.4454 -4.4345 19.1147 -74.068 410.443
24409 1 21.7577 -91.0773 -17.9138 406.112 -396.912 482.099 -161.645 -167.788 158.452 -406.299 974.581
24657 2 20.3268 -91.5895 -17.2289 -230.03 193.701 -223.801 66.2267 43.0002 -71.26 -64.7877 459.223
29301 2 17.9122 -91.8913 -18.5514 -264.203 213.914 -155.326 63.5719 22.6696 -8.31388 -65.6606 449.742
17190 2 21.7238 -92.0196 -19.2061 -276.419 209.585 -233.586 67.4329 90.5496 -32.9201 -53.8924 508.634
12110 1 19.1348 -92.6548 -17.6703 625.726 -484.904 427.778 -110.47 -82.612 91.0682 -417.689 1065.27
22104 2 18.4561 -93.2041 -16.3691 -321.151 292.745 -270.836 36.3285 35.5222 -43.9833 -56.0922 601.714
22071 1 21.2223 -93.5191 -19.6691 719.145 -677.311 567.049 -13.2844 -154.061 -5.51136 -453.574 1353.76
1928 2 23.0366 -91.1481 -16.9941 -169.291 206.693 -290.28 34.0793 78.9132 -127.341 -64.7976 521.829
19859 2 19.9766 -93.6873 -18.597 -399.578 353.865 -271.368 39.8991 77.9946 -23.0458 -46.1652 715.636
21988 1 19.1387 -88.512 -20.4949 343.454 -431.51 340.185 -195.857 3.39633 11.0787 -384.989 844.707
27157 1 17.9767 -92.9452 -14.8679 553.153 -550.046 637.547 -17.8649 -71.0153 86.3105 -415.366 1164.35
24675 1 28.3986 -88.2621 -14.9439 405.051 -450.96 363.755 -265.567 -24.5887 203.868 -385.836 1018.42
24558 2 26.567 -88.9679 -18.6493 -208.661 168.331 -208.346 47.4492 -71.1211 -175.937 -75.6807 506.748
29792 2 27.9115 -88.997 -16.284 -266.965 226.447 -167.165 101.108 -18.189 -154.879 -73.5605 554.795
24504 2 23.689 -89.4551 -15.3065 -169.769 235.927 -221.774 -4.25022 2.51068 -128.66 -74.6335 487.981
4599 1 27.8524 -89.4911 -17.8304 560.012 -447.39 409.672 -73.8889 150.844 387.263 -394.001 1191.88
21898 2 25.7578 -90.7851 -16.4931 -238.878 246.094 -293.768 35.9903 -37.9609 -177.805 -69.8774 606.534
29569 1 24.2307 -90.867 -15.9532 359.195 -453.61 593.009 -10.9813 -41.2136 294.724 -393.522 1082.32
19688 2 27.8777 -91.0936 -17.6404 -340.734 311.991 -290.262 15.9116 -110.441 -155.661 -57.942 711.122
27246 2 28.0083 -91.5734 -15.034 -292.618 290.044 -362.017 31.4938 -42.2815 -63.1143 -64.9956 636.425
29389 1 27.0687 -91.7684 -16.3969 675.923 -604.583 701.947 -31.9302 163.425 223.184 -409.175 1380.69
5 2 28.9084 -88.655 -18.7945 -201.677 106.681 -192.671 25.028 -86.3963 -117.761 -72.9851 397.824
27095 2 26.3332 -93.1799 -15.9788 -384.346 382.807 -462.546 -36.1662 -82.6812 -33.5661 -56.1676 826.101
29 2 24.4717 -92.0436 -14.9868 -241.905 243.547 -361.685 17.8924 -21.0078 -99.4674 -69.4091 583.202
27562 2 33.9846 -88.2061 -20.7332 -40.099 13.853 -230.777 -33.6437 6.50371 18.5766 -64.4608 232.625
9799 2 -21.8113 -88.2855 -17.9841 -100.979 63.3599 -219.401 -81.5238 20.5309 7.93336 -66.4364 286.154
4993 1 -21.5682 -87.9248 -19.5798 184.936 -92.1788 458.848 199.865 -59.727 -74.6752 -389.876 612.368
7205 2 -21.8885 -87.7883 -15.1024 -42.4789 20.136 -222.788 -74.1724 53.14 -28.281 -65.2787 274.039
29762 1 -22.0742 -87.3461 -16.6516 116.128 -44.9015 392.579 144.377 -71.4339 23.2064 -399.048 475.742
7113 2 -23.6213 -87.0213 -16.6942 -7.83705 -0.639824 -233.547 -73.5168 -14.2502 -10.4289 -65.7429 264.142
9473 2 -20.2553 -86.933 -19.6025 -96.7913 84.4451 -227.767 -92.1412 53.0342 63.1535 -77.3386 345.849
27633 2 -22.6824 -86.7873 -19.9752 -41.1615 24.4902 -214.268 -97.5449 37.2198 36.6938 -74.287 287.021
9894 2 -21.202 -86.0137 -16.9173 -73.6015 79.0719 -195.089 -48.271 53.7786 8.73021 -73.024 269.28
4983 1 -23.4344 -85.4608 -20.2165 70.8982 -133.518 368.536 123.559 -75.9003 -89.6973 -386.611 527.67
26871 1 -20.3548 -84.7115 -16.762 188.779 -327.757 414.61 52.2413 -131.366 -29.3184 -387.016 704.98
7685 2 -20.0521 -84.5977 -15.1333 -116.886 178.978 -195.543 -17.4215 61.5515 -7.07033 -72.5289 359.75
29648 2 -23.0007 -84.208 -19.2512 -32.3821 142.057 -234.769 -45.2117 28.3662 57.4919 -72.4612 353.774
1640 2 -21.1506 -83.4698 -17.5338 -51.3298 161.384 -264.733 -38.7816 46.3616 22.5789 -72.7846 385.579
2608 1 -22.061 -82.8912 -18.7713 66.622 -349.208 515.328 94.2467 -58.2562 -91.0718 -390.586 789.017
24612 2 -20.9123 -82.5273 -19.9227 -81.4023 161.72 -188.278 -20.2182 42.5353 31.5919 -72.9834 325.826
7419 1 -19.3241 -82.3009 -20.3562 313.904 -335.144 231.164 -1.41825 -126.69 -37.6381 -386.687 653.31
27177 2 -24.9915 -85.969 -19.9902 2.73986 8.40337 -189.883 -53.2113 11.3729 55.6458 -72.7806 237.483
366 2 -24.9317 -82.7002 -15.4347 -73.0148 152.534 -214.604 -24.2878 -3.78121 59.1595 -71.2236 339.363
2035 2 -18.9265 -84.7609 -17.5714 -150.056 221.972 -231.739 -36.851 83.8176 46.7002 -76.4653 455.146
29673 2 -18.023 -88.2351 -19.169 -96.4483 95.8398 -243.345 -144.603 84.9732 51.4618 -76.5491 423.245
9899 2 -17.1127 -87.3291 -14.8181 -179 165.032 -163.918 -92.0632 -19.8344 5.38036 -81.3533 374.288
1944 2 -15.7566 -87.2189 -18.1516 -98.1002 207.063 -251.848 -106.799 40.654 39.7675 -78.9484 455.633
29654 1 -18.7767 -87.2695 -20.1946 220.028 -206.797 401.186 228.649 -180.93 -101.944 -379.689 760.622
14780 2 -13.7972 -85.943 -19.4587 -106.965 251.159 -273.463 -48.486 29.0066 24.942 -75.7179 476.492
4732 1 -15.0311 -85.792 -18.306 141.608 -574.373 610.558 150.208 -72.5842 -100.764 -382.456 1087.32
2132 2 -18.0721 -85.8256 -19.9721 -140.457 215.126 -205.339 -78.1064 90.4427 36.9431 -75.439 447.946
9869 2 -16.3281 -84.8326 -18.5841 -94.7416 290.372 -292.951 -61.4734 60.0669 68.0082 -74.5823 547.695
12271 2 -14.2342 -84.979 -17.1668 -117.162 290.887 -280.122 -87.0753 6.09334 73.2085 -76.0695 546.344
2524 1 -17.9519 -84.6847 -18.8945 270.144 -520.082 477.41 95.2429 -154.51 -103.014 -383.77 980.752
4900 1 -13.3484 -83.6331 -17.0699 239.976 -567.754 526.687 254.107 -19.4675 -195.809 -383.473 1129.64
27167 2 -18.4122 -83.4266 -19.6672 -166.194 212.215 -175.994 -8.37784 81.3193 38.0672 -74.9567 413.998
9814 2 -14.0587 -82.7558 -18.2758 -186.066 266.913 -219.423 -131.016 0.967665 56.5093 -75.6444 531.498
7772 2 -13.5989 -82.8152 -15.7192 -121.659 264.011 -239.791 -130.008 21.124 86.3503 -78.6809 531.668
7484 2 -16.0319 -82.6013 -15.1573 -175.556 274.96 -235.977 -23.0505 37.2107 47.8948 -84.1122 496.453
7117 1 -12.1182 -87.9961 -16.4964 228.511 -476.274 546.143 41.5002 -22.6489 -115.323 -373.57 931.707
19117 1 -8.13719 -87.8949 -19.0606 77.6405 -457.889 639.061 -5.62389 -44.5724 -31.3703 -377.756 954.804
19703 2 -9.05166 -87.7435 -20.3527 -44.9558 240.27 -304.986 -5.69218 43.6455 -18.9769 -77.3562 479.614
179 2 -11.5665 -86.4525 -16.5167 -107.467 254.342 -282.24 -25.8412 33.4848 59.7572 -78.0499 490.679
29407 2 -11.1788 -85.7352 -18.8953 -117.171 216.035 -275.783 -31.7027 18.9632 7.62342 -78.2096 439.662
9795 1 -12.325 -85.8047 -20.0563 286.84 -471.654 472.142 71.1375 -28.5362 30.8738 -383.231 877.886
12099 1 -10.8247 -85.2586 -17.3812 145.946 -439.469 579.533 45.5198 -101.592 -130.343 -381.458 934.175
4281 2 -9.27557 -85.0452 -17.154 -55.5033 211.877 -298.361 18.1567 48.6623 68.555 -75.1517 466.476
4622 1 -7.85564 -84.5506 -16.5872 105.917 -420.19 588.37 -51.7582 -102.398 -117.356 -386.895 918.794
11913 2 -8.28416 -83.9959 -15.1023 -41.8718 202.608 -294.617 4.68079 30.7968 58.0467 -73.2467 445.489
2300 2 -11.8476 -83.9458 -17.2683 -77.2013 238.199 -287.369 -89.0298 22.6031 85.7001 -74.0431 507.228
2016 2 -7.19646 -83.3688 -17.5071 -79.1652 201.968 -278.73 34.0097 42.0567 37.1192 -73.3398 433.446
19902 2 -8.14471 -83.357 -19.8395 -80.9239 184.391 -231.903 41.4615 55.4026 4.85363 -68.8635 384.292
2307 1 -7.26943 -82.4599 -18.7855 185.884 -394.854 512.678 -49.7787 -63.9631 -47.4362 -393.959 812.582
14405 2 -7.2894 -86.4886 -18.9897 -67.5074 227.935 -311.957 8.8079 33.3554 24.9308 -76.1558 474.023
7379 2 -12.2673 -84.3382 -20.7591 -165.082 199.068 -201.957 -78.9911 14.788 -59.8415 -71.6851 421.32
7024 1 -1.42686 -87.9649 -15.1912 -35.4972 -340.192 571.193 -4.26921 -132.071 -80.1771 -385.187 847.016
12309 2 -4.83971 -87.184 -18.7343 -56.6611 206.829 -289.91 25.5133 59.9952 39.0345 -73.7575 450.125
11852 2 -1.6359 -86.4751 -15.932 -20.5632 235.786 -316.991 3.68884 75.9453 41.1004 -77.0697 501.982
6915 1 -5.86184 -86.3489 -19.6886 174.6 -484.782 631.52 -51.0055 -56.919 -13.4097 -386.099 981.279
20025 2 -6.57149 -85.5398 -16.2254 -41.6779 231.047 -289.794 22.3763 79.895 50.49 -73.4574 481.568
17276 2 -3.82479 -85.1182 -16.4378 -15.581 215.157 -300.042 28.6226 84.177 37.8848 -74.3117 477.3
12316 1 -5.1688 -85.1272 -15.5026 48.6993 -441.186 640.952 -47.6805 -160.417 -64.1676 -386.555 988.565
1833 2 -5.16591 -85.0017 -20.0775 -94.2477 231.117 -291.085 41.0121 29.8466 -10.9608 -71.1486 465.542
9616 1 -2.26493 -85.064 -16.2414 -1.07795 -436.852 619.968 13.0583 -152.933 -58.7798 -379.657 962.952
12216 2 -2.66643 -85.7163 -20.4919 -10.7388 220.224 -318.518 19.4826 52.0695 -35.3605 -68.7683 481.852
17202 2 -1.41966 -84.1241 -17.3222 -61.5664 181.159 -216.796 -31.0124 59.2718 14.765 -77.5177 367.109
17465 2 -3.52548 -83.0346 -20.3075 -82.1629 153.958 -193.652 19.8956 33.6977 -26.4363 -68.7772 318.118
12363 1 -1.55433 -86.8843 -20.6208 -7.61588 -442.747 661.174 -101.614 -107.537 74.5207 -392.134 1004.97
14603 2 -5.27954 -83.636 -14.9432 -13.6095 187.839 -316.865 0.0971148 54.6744 34.6733 -76.3189 454.104
7204 1 -3.79451 -84.5887 -20.7938 157.221 -400.407 535.364 -58.0657 -81.4441 100.851 -397.694 851.664
11837 2 -1.84452 -84.17 -14.8693 -11.231 187.152 -337.261 -23.6222 63.6695 10.0197 -83.459 473.779
7327 2 2.7249 -87.9392 -15.6214 -203.285 251.902 -224.604 -54.289 45.6592 1.29892 -92.7591 482.136
19397 2 1.92822 -87.7051 -20.0217 -84.9546 103.707 -204.585 80.9551 -15.0723 -91.7547 -80.8526 343.619
9243 1 0.766726 -87.6971 -18.8106 203.47 -319.083 370.769 -91.2203 -112.128 74.3414 -373.84 683.911
14679 1 1.36747 -87.1127 -16.0478 308.786 -538.296 424.071 129.662 -118.703 -33.7714 -359.691 961.574
9428 2 1.25957 -86.8233 -17.5908 -151.159 227.527 -158.847 -27.4083 27.3594 -5.72063 -82.6623 388.551
7423 2 -0.694998 -87.2837 -19.3446 -45.2824 188.85 -269.816 45.9573 67.4495 3.67771 -75.3504 421.698
11934 2 1.48087 -85.5847 -15.5473 -158.551 291.337 -246.195 -68.8264 34.8596 12.5473 -88.6594 517.532
14872 1 -0.529246 -82.8063 -17.4145 166.57 -326.738 345.537 52.9443 -17.9066 61.1705 -375.559 619.891
12002 1 1.52269 -83.9788 -15.4433 251.548 -466.998 479.812 97.9224 -16.6596 39.5914 -356.663 875.633
2118 2 4.21365 -83.5509 -17.2108 -135.716 200.393 -109.667 2.46704 -78.9549 -37.2514 -81.5599 357.457
17084 2 2.92809 -83.4567 -15.0915 -108.148 248.885 -221.836 -5.24364 -28.5049 -41.1906 -87.5711 434.278
7400 2 3.59564 -83.5471 -19.8005 -113.719 148.884 -121.178 -29.7379 -63.4292 -5.62201 -81.2685 292.903
24400 1 4.50616 -83.3693 -15.6498 243.616 -493.569 357.243 -30.8332 107.98 116.104 -368.092 847.578
21706 2 0.792863 -83.155 -16.6153 -114.131 201.455 -187.744 -23.3126 -9.05436 -38.4913 -84.4874 366.832
9410 1 4.57056 -82.9473 -18.7125 281.53 -336.056 196.344 56.6397 134.816 -31.3125 -372.159 634.942
19524 2 1.39318 -82.7902 -20.6105 -107.671 151.872 -160.349 -42.1956 -24.1884 -27.8654 -76.6293 305.345
12503 2 7.05451 -87.8859 -20.4739 -145.468 138.705 -130.422 -10.0681 -112.842 -150.824 -83.0484 428.313
14592 2 5.74189 -87.5756 -18.4135 -128.011 171.594 -149.771 46.5792 -84.807 -129.356 -84.1103 418.378
16983 1 7.20733 -87.3868 -18.9087 289.983 -351.819 273.361 -72.5558 119.574 240.836 -369.254 796.373
11997 2 7.44263 -85.7725 -18.8696 -150.145 166.734 -95.6772 25.0808 -24.9087 -62.0348 -82.7883 318.453
17013 2 10.2836 -85.825 -18.4084 -92.3276 123.599 -107.351 32.0805 -19.7087 -24.9574 -78.7102 237.097
26897 2 8.71301 -85.2162 -16.3587 -103.949 151.209 -119.936 35.1528 -19 -47.2723 -79.645 284.49
21901 1 9.63106 -84.625 -17.5478 204.813 -282.735 250.92 -68.2469 10.7033 53.6157 -375.906 534.087
11810 1 7.4022 -84.2368 -19.3938 270.156 -300.39 169.035 5.48295 45.8958 20.3759 -368.804 534.518
19306 2 8.77704 -83.8224 -18.6493 -98.4532 157.872 -135.581 20.9887 10.6765 -3.63018 -79.7439 279.823
22195 2 10.7569 -83.7537 -16.8729 -109.649 161.427 -141.201 32.9988 -13.4569 -27.0735 -79.8495 298.395
17096 2 6.05125 -83.533 -18.9225 -141.293 166.859 -94.5275 -24.9965 -60.726 16.6964 -82.1045 310.657
24493 1 8.55665 -85.9309 -14.9758 162.781 -269.015 299.482 -94.8562 57.8055 86.4769 -373.402 568.871
24513 2 9.67983 -87.1086 -14.7619 -97.5779 109.285 -167.938 54.8863 -12.2901 -26.5286 -79.8634 271.845
14501 2 5.35492 -84.4562 -14.795 -101.339 236.302 -199.665 3.76883 -27.9206 -65.5013 -83.127 414.875
12113 2 5.36235 -82.0292 -15.4085 -132.318 244.069 -193.065 14.0737 -22.5802 -6.96959 -82.2774 412.906
5118 2 7.04792 -86.3583 -14.7121 -72.2247 164.142 -158.33 47.73 -37.1235 -34.975 -82.2138 313.487
21987 1 11.0919 -82.2182 -16.8263 205.023 -354.332 307.86 -13.7166 39.4974 42.1362 -376.069 625.737
17109 2 11.6969 -87.7242 -19.8749 -138.738 189.78 -142.354 -22.5561 -33.7749 4.94574 -74.4708 337.857
17489 2 12.4803 -86.8178 -17.517 -109.25 125.935 -128.051 -15.4782 -9.09076 -25.8994 -75.7272 251.129
12183 1 13.7287 -86.9009 -16.574 231.301 -294.941 333.26 78.0587 48.092 66.0229 -380.341 615.855
17187 1 11.7346 -86.5036 -18.8481 242.289 -278.228 210.835 -14.9786 42.5951 16.4801 -382.342 512.333
24606 2 13.5769 -86.1395 -15.1885 -118.397 161.636 -177.781 -25.7144 -61.6821 -34.3861 -80.4369 339.881
19403 2 14.9658 -86.0774 -17.1861 -114.813 145.634 -164.538 -23.6401 -29.2705 -44.2274 -77.4403 305.567
14896 1 16.5083 -85.747 -17.2164 229.758 -361.308 330.505 -6.03318 100.835 119.743 -381.252 701.915
17039 2 12.4877 -85.2625 -19.5477 -130.698 137.976 -94.0079 28.7323 -23.1081 -27.5348 -78.3928 264.627
19387 2 14.105 -83.5711 -14.9541 -139.038 183.741 -177.262 18.8713 -55.2484 -30.4041 -80.4481 361.917
12324 2 13.8416 -82.9053 -19.644 -107.229 119.941 -121.044 20.4109 -56.2311 7.79485 -80.8224 256.62
17019 1 15.0207 -82.4388 -15.6264 215.559 -352.949 360.154 -41.475 66.1494 32.1723 -376.963 669.108
27090 2 14.8516 -82.4896 -17.2257 -105.998 138.367 -119.429 10.6737 -42.5334 -20.5781 -79.0912 264.983
27349 1 13.1427 -84.1236 -20.487 196.999 -222.854 207.356 -84.4202 41.4373 -1.04731 -373.601 455.266
24764 2 16.8259 -82.8082 -20.4089 -85.2266 116.715 -192.081 28.3547 -42.0171 -4.07078 -82.9863 285.543
12223 2 16.8631 -84.6821 -18.3644 -102.509 155.324 -103.721 12.9589 -52.893 -75.8715 -76.4542 304.89
17286 2 12.3737 -81.9628 -17.7865 -127.042 156.156 -132.819 13.445 -32.009 -18.059 -80.452 294.049
2030 1 21.4581 -88.1187 -18.7782 228.82 -296.148 376.324 -261.288 -29.5154 128.852 -379.832 794.997
16969 1 22.948 -88.0633 -14.887 303.267 -403.147 341.462 -43.9565 43.7102 186.875 -383.334 802.344
22361 2 21.367 -88.1325 -15.3442 -109.024 174.247 -193.306 47.3146 -27.4719 -67.9845 -75.4488 366.151
14433 2 22.4264 -88.0033 -20.0545 -110.916 98.9251 -165.231 148.817 17.3798 -38.0356 -77.5084 360.647
17179 2 19.933 -87.874 -19.2824 -122.564 177.333 -180.148 94.0219 -4.19904 -29.1696 -76.1325 373.697
7115 2 17.01 -85.3006 -15.7884 -100.54 186.195 -213.796 9.41553 -42.2285 -34.8076 -77.8236 369.823
24378 2 17.1523 -87.1872 -17.4645 -149.35 189.549 -169.06 6.97966 -51.3313 -32.4507 -76.0102 364.87
17100 2 21.7945 -86.781 -17.8954 -101.682 133.795 -183.855 69.3792 -24.6935 -56.1125 -80.6006 327.516
19588 1 22.3047 -85.2978 -18.281 165.246 -280.301 365.099 -6.11332 51.3368 58.8587 -370.694 588.14
16817 2 18.3975 -84.8951 -20.3897 -111.663 162.475 -172.457 1.19957 -4.08982 -47.8266 -79.1917 320.047
19500 2 21.182 -84.2265 -18.3073 -84.9461 165.226 -176.021 -27.4209 -15.9812 -40.8685 -79.3507 318.9
15064 1 17.7497 -83.7118 -19.4769 197.41 -270.695 267.628 -32.5044 41.2348 88.6278 -375.235 537.362
19761 2 18.9634 -83.0393 -18.673 -91.2789 138.887 -136.562 13.5443 -7.58361 -28.4494 -79.0888 261.917
24501 2 20.0007 -82.8029 -16.3742 -104.059 150.467 -155.78 0.066989 -37.8195 -34.9721 -75.3179 297.629
27097 1 20.4128 -82.8909 -17.9586 195.289 -327.019 313.605 12.4248 31.9366 82.287 -378.871 610.277
29601 2 23.1553 -85.6369 -19.5948 -47.2295 93.4622 -186.748 28.3332 -17.6446 -48.5734 -84.51 263.266
19532 2 23.3177 -84.9634 -17.0165 -96.5975 125.282 -159.881 19.5644 -45.6994 -9.07353 -81.2536 273.746
2223 1 28.9722 -87.9079 -20.1347 253.152 -67.5245 362.338 -29.0704 240.825 54.637 -375.277 579.007
14510 1 26.3471 -87.5421 -19.2505 253.255 -110.408 395.643 -58.7864 122.748 174.882 -361.675 592.981
10 2 24.9872 -87.4592 -20.1163 -44.4022 17.2335 -183.465 65.8712 -32.7896 -48.6319 -83.8292 234.62
27371 2 27.4255 -87.0093 -20.3952 -145.217 25.1849 -179.783 15.3006 -85.5086 -24.7418 -89.0001 246.162
22367 2 23.8756 -86.9 -15.4101 -133.313 172.722 -148.701 46.6823 -47.4804 -79.7218 -77.7889 361.899
2032 1 23.5232 -86.9118 -20.5435 69.0264 -63.2161 306.489 -181.118 2.62125 64.7862 -370.172 465.083
27299 2 28.8307 -86.7503 -15.4272 -156.992 136.837 -141.389 116.156 40.8 -67.5105 -77.5267 375.683
14598 2 26.6251 -86.5241 -18.0545 -134.053 83.7507 -164.166 43.912 -32.9842 -47.9654 -87.8988 266.185
29761 1 24.115 -85.3712 -15.6646 229.305 -272.029 256.293 -89.8294 116.191 -14.4423 -377.789 575.264
20152 1 26.6311 -85.1308 -17.2376 199.165 -248.198 291.593 -159.67 32.6534 -3.4982 -366.272 574.233
27079 2 25.7419 -85.0612 -15.9766 -94.5426 130.363 -130.553 58.2738 -37.9051 12.9161 -79.2129 273.818
24611 2 28.1654 -84.7868 -16.9011 -125.212 140.492 -131.809 111.383 12.9342 -8.85879 -82.4697 332.191
24972 2 26.0079 -84.2674 -18.4286 -84.847 137.69 -184.838 57.8816 -29.5445 8.16807 -85.3448 307.64
29667 1 25.7507 -83.7016 -19.9157 140.267 -356.926 376.876 -53.6239 26.0916 51.123 -365.822 662.824
22267 2 24.3764 -82.9472 -20.2713 -45.3462 174.49 -178.797 -15.1378 -1.59795 -28.4498 -80.4925 314.003
29865 2 26.9216 -82.6377 -20.1301 -81.3035 193.803 -179.724 54.817 -0.212056 -3.19891 -82.6404 348.557
5162 1 29.0993 -85.1623 -15.624 248.487 -238.752 243.946 -203.917 -61.8855 82.6142 -376.185 626.036
9669 2 29.3486 -83.1749 -19.3994 -99.8264 157.524 -176.526 94.8427 -3.87925 36.1262 -84.9982 350.423
7492 1 -25.1985 -86.8997 -16.7122 9.07043 -16.9193 458.991 130.79 106.103 20.6998 -406.159 548.793
4740 2 34.4212 -87.6959 -15.3998 -9.25647 41.9846 -276.073 -35.6579 -71.6056 -47.8964 -59.1831 336.998
29289 2 34.3391 -87.3941 -18.1069 -17.7306 -25.1451 -206.884 -47.2033 -25.6397 -0.409142 -63.2032 207.578
9928 1 34.0624 -87.0301 -19.637 -6.83361 29.5615 375.923 76.6302 -8.89652 -86.5144 -398.097 417.379
2515 2 29.9685 -86.7022 -20.2989 -30.771 45.8419 -183.241 48.6974 -99.0166 33.6741 -81.2531 284.125
4823 2 32.5569 -86.3954 -19.5876 11.9917 17.7909 -171.172 -16.4321 -24.7847 65.4829 -72.0661 223.968
9724 1 31.1492 -85.6798 -19.8471 19.436 -149.685 334.097 -70.8995 94.6014 -143.347 -378.087 533.294
128 2 30.6632 -84.9869 -15.5953 -91.8525 98.1703 -148.265 90.0238 0.131139 -53.7715 -77.8675 288.093
27012 2 34.7089 -85.2359 -16.6263 -12.1724 72.6464 -251.368 -67.7823 -58.5949 11.4663 -69.4059 330.416
1781 2 30.6773 -85.0306 -18.5146 -40.8986 105.553 -164.35 75.0503 -10.9112 40.5319 -79.6738 277.401
29769 2 32.9991 -83.9 -15.3181 -78.4445 145.729 -214.161 51.5743 -21.8721 0.891807 -74.6825 329.415
2044 1 34.2817 -83.6738 -16.3837 86.7058 -296.545 438.797 28.6592 31.8352 -61.8291 -389.377 650.201
22276 1 30.3472 -83.5407 -18.2305 151.434 -271.81 368.124 -177.951 -14.5756 -56.6902 -368.977 650.446
29852 2 34.0579 -82.7728 -17.6753 -39.2468 136.793 -220.494 7.21049 -12.507 54.3936 -75.795 324.42
22471 2 31.6858 -82.7916 -18.5585 -69.0761 123.287 -204.572 58.6068 12.2764 53.0688 -81.7339 317.227
24768 2 29.7298 -82.5961 -17.0157 -98.2193 155.716 -183.657 79.6739 -0.866574 18.0033 -81.8692 336.894