ITEM: TIMESTEP
1640000
ITEM: NUMBER OF ATOMS
29952
ITEM: BOX BOUNDS pp pp pp
-2.5093087473165852e+01 3.5078381815859899e+01
-1.1370647232226982e+02 1.2369176666426982e+02
-2.0985542515027589e+01 3.4853395661184415e+01
ITEM: ATOMS id type x y z v_StrAtomXX v_StrAtomYY v_StrAtomZZ v_StrAtomXY v_StrAtomXZ v_StrAtomYZ c_PEAtom v_VMS
4519 2 -13.9756 -99.5623 -17.6459 -387.979 449.535 -420.277 -25.679 -31.3258 -37.596 -56.2618 859.468
4527 1 -13.5604 -98.126 -16.9869 658.633 -693.186 658.648 206.036 82.5027 -74.8843 -404.11 1411.39
4248 2 -13.9699 -97.4489 -15.6286 -306.023 293.185 -279.113 -110.445 -54.047 54.7127 -63.6772 630.863
12116 2 -13.4047 -96.9303 -18.099 -278.074 271.971 -302.258 -126.306 -7.91359 58.991 -75.7724 612.311
29775 1 -15.0585 -96.2098 -20.5818 502.677 -439.683 352.635 322.878 -127.345 -128.634 -383.197 1086.37
2196 2 -15.9087 -96.1867 -19.2265 -212.731 185.128 -217.402 -167.587 17.6962 46.6397 -72.2425 501.891
7411 2 -17.2252 -95.5485 -16.8797 -220.771 151.45 -184.295 -121.414 -21.6664 6.34452 -72.4229 414.795
9700 1 -17.2448 -95.4452 -15.3012 460.364 -253.808 368.78 210.05 124.066 -58.2616 -383.218 801.091
14621 2 -12.9369 -99.4993 -19.9096 -390.568 374.815 -382.104 -28.4607 119.31 -43.9259 -66.5435 793.932
24571 2 -11.1947 -100.724 -18.4644 -319.336 458.56 -550.63 -19.189 80.6899 -88.4349 -52.5746 939.489
12319 2 -8.49597 -100.326 -19.3356 -130.959 318.491 -535.551 -51.2484 16.1071 -55.3871 -54.6746 751.934
7300 1 -9.76031 -99.8532 -18.468 327.578 -641.273 1018.44 102.006 -152.455 114.455 -418.435 1491.83
4816 1 -12.5259 -99.9206 -18.4079 755.355 -845.964 937.149 52.345 -101.043 130.162 -414.12 1725.7
9608 2 -9.22543 -99.4928 -16.9983 -196.126 306.946 -420.914 -33.7946 102.444 -14.4355 -55.4919 672.481
7017 2 -12.0308 -98.7465 -17.1966 -286.857 337.102 -386.332 -77.736 35.6607 -1.87946 -63.1926 695.157
17086 2 -10.2288 -98.4625 -19.2459 -109.37 248.061 -457.166 -57.4006 76.5099 -29.2213 -68.8587 634.855
9517 1 -8.74815 -98.3604 -15.9981 406.807 -513.049 688.177 98.0096 -200.799 -60.8199 -418.322 1159.74
4899 1 -10.5768 -97.2034 -20.0967 173.53 -484.834 787.784 58.2981 -152.082 29.7072 -390.394 1139.03
9438 2 -9.2963 -96.9418 -16.5281 -128.762 236.682 -318.174 -62.2501 106.55 36.8584 -63.7881 537.034
9798 2 -11.3811 -96.0193 -19.2443 -136.973 285.77 -345.506 -33.2759 57.7367 34.2992 -74.4235 572.018
7201 1 -12.8149 -95.6079 -18.8648 415.861 -576.221 575.682 159.017 -75.494 -122.013 -380.59 1142.78
12367 2 -7.06808 -98.5518 -20.4955 -93.9795 258.822 -452.135 -78.0603 -2.4418 -18.4242 -67.8012 631.204
14115 1 -6.99167 -100.089 -19.8349 299.423 -567.026 961.814 123.13 24.4379 98.084 -414.789 1356.3
19496 2 -7.1155 -98.2746 -16.1103 -214.43 253.857 -348.404 -31.2848 33.0916 32.1919 -60.5949 556.157
12202 2 -9.14112 -96.8763 -20.6589 -32.6394 249.786 -406.59 -28.7303 37.7866 -33.2074 -68.1381 579.037
12177 2 -3.71746 -101.045 -18.7742 -376.662 426.817 -457.378 -36.1553 41.7924 -59.3197 -55.4704 858.292
7095 1 -3.24747 -100.751 -20.2504 767.894 -805.655 929.022 81.4392 -106.489 43.2334 -409.988 1677.82
9885 2 -5.93852 -99.9552 -18.593 -222.049 305.379 -417.687 -37.9791 -1.91028 -18.9785 -61.1181 651.964
17074 2 -1.8463 -99.8786 -20.2713 -300.676 368.642 -455.358 23.7399 114.758 2.75949 -62.3303 785.281
14618 1 -4.57926 -100.047 -17.7816 601.941 -690.169 797.47 34.8381 -27.4175 33.5035 -417.535 1403.46
16917 2 -4.99921 -99.8656 -16.2018 -314.124 347.467 -394.964 -27.7842 10.5776 -13.4179 -52.2526 707.751
9630 2 -3.64971 -98.71 -17.9602 -238.365 306.04 -375.175 24.0556 40.9454 37.4795 -65.1803 632.893
14307 1 -5.72072 -98.7151 -15.2971 540.978 -568.589 715.621 31.6116 -17.0173 -49.2249 -424.028 1211.01
14684 2 -2.33482 -97.431 -19.8045 -189.683 274.205 -371.354 83.4976 93.3519 31.3586 -71.5306 618.45
16881 2 -4.78565 -97.446 -15.4379 -200.913 260.936 -332.202 27.566 24.24 55.048 -59.4933 551.643
9712 1 -3.09227 -97.2896 -18.4087 298.02 -535.686 704.488 -76.9209 -135.348 -117.509 -397.117 1145.99
17093 2 -1.66568 -97.0485 -17.6116 -107.753 229.508 -343.535 65.3424 135.788 59.4165 -66.4513 572.34
17135 2 -4.41133 -96.3778 -18.5057 -161.697 270.375 -330.92 -18.1897 40.443 42.2247 -69.0727 547.437
17008 1 -4.52202 -95.8428 -15.5697 306.185 -458.286 624.467 -67.023 -106.028 -161.78 -407.72 1027.01
11918 1 -1.16106 -98.4511 -20.3064 444.462 -619.403 781.051 -210.533 -244.021 -25.5955 -403.901 1384.47
20158 2 -6.58199 -101.158 -20.9236 -238.636 371.174 -554.601 -32.8521 -9.54917 -43.5415 -51.5651 820.719
24524 2 2.66029 -99.2032 -15.0586 -349.033 407.942 -425.351 20.1772 51.5549 -12.6779 -64.0387 803.917
17006 1 4.12687 -98.6026 -15.3888 678.08 -691.685 754.592 73.8622 28.3514 -0.224 -390.175 1416.22
4424 2 -0.069147 -98.28 -19.135 -178.732 294.615 -378.565 89.0832 184.075 5.98591 -61.1583 695.807
12111 1 1.67207 -97.8679 -15.1897 510.862 -536.274 740.04 -21.2452 -192.096 -0.823197 -389.866 1225.18
12198 2 0.77036 -97.6784 -16.5054 -174.946 246.936 -361.283 32.5192 182.471 5.05848 -68.5284 628.056
12086 1 -0.0537351 -97.248 -17.8354 286.908 -454.273 658.845 -145.792 -392.262 -10.7896 -400.239 1220.28
12212 2 3.14134 -97.13 -15.533 -280.345 214.861 -334.794 -25.0542 35.5077 -11.8471 -82.2218 530.325
17001 2 0.456371 -95.8298 -18.4542 -155.584 190.704 -260.321 59.2964 127.088 -30.5456 -70.8816 478.493
14694 2 3.38068 -95.7762 -19.0452 -131.646 137.611 -218.084 -4.34373 5.514 -132.026 -70.6247 394.57
11929 1 3.73484 -95.4941 -15.2169 487.751 -524.503 512.648 63.1849 -25.0558 -14.2751 -366.277 1031.97
11914 2 4.62372 -95.5087 -16.5263 -198.835 225.336 -216.245 -7.84395 -64.676 -44.3778 -79.8611 454.148
14485 1 4.64395 -95.6378 -18.142 355.113 -360.298 425.953 37.442 129.437 261.006 -384.793 909.038
9800 2 9.91 -99.788 -18.9549 -274.245 333.967 -449.356 -53.083 -106.49 -48.175 -53.3726 746.007
19786 2 7.16005 -99.0816 -18.7478 -304.452 344.914 -430.717 -43.6742 -143.844 -19.3501 -58.3139 767.157
17104 1 8.67982 -98.7468 -19.3268 561.919 -578.297 761.855 148.096 312.322 113.676 -417.07 1401.87
19508 2 4.93496 -98.7917 -16.7331 -296.532 338.664 -411.798 -35.5108 -88.3449 -1.91723 -67.8368 719.156
16815 1 6.18368 -98.2183 -17.7143 520.631 -585.676 775.486 90.6631 274.528 70.8663 -398.444 1355.23
22211 2 8.96413 -97.3177 -18.4929 -220.018 242.694 -304.024 -62.3032 -127.384 -33.6519 -64.6192 568.992
12321 2 7.15929 -97.2903 -16.7932 -219.677 232.008 -303.34 -17.2615 -89.1406 -4.53349 -71.3134 523.07
14443 2 5.44332 -96.9106 -18.517 -224.264 215.776 -291.014 -45.9728 -87.5817 -111.758 -71.4162 542.48
19227 1 8.4198 -96.3542 -17.2749 412.445 -470.335 499.617 -4.14061 105.752 -5.55508 -398.525 947.391
19784 2 9.34063 -96.0555 -15.965 -163.674 193.641 -218.578 10.4751 4.53294 29.9727 -65.3703 391.653
19292 2 8.97991 -98.4372 -20.8827 -319.152 271.448 -293.873 -45.9448 -155.262 -105.555 -56.107 668.278
22085 2 12.3595 -101.036 -17.8501 -393.29 409.26 -435.306 25.1398 -45.3735 -34.1318 -46.3448 831.348
17205 2 12.3314 -100.072 -20.1468 -315.55 335.725 -416.721 4.37542 -91.882 -74.5476 -53.2731 736.438
12364 1 11.4508 -100.019 -18.8278 575.639 -614.005 866.426 27.0868 150.645 103.241 -428.029 1395.71
24569 2 14.3334 -99.7069 -18.6985 -359.188 286.48 -291.361 45.9927 -69.6283 -28.5056 -56.9363 633.264
12302 1 13.3598 -99.7981 -17.4935 699.38 -554.866 591.147 -82.604 25.0682 -9.95129 -426.181 1213.16
19683 1 13.8991 -99.6975 -20.4017 664.526 -620.027 716.228 -24.2717 250.257 149.685 -417.768 1405.71
17050 2 13.962 -99.7191 -16.0371 -373.438 305.364 -282.276 41.5591 13.1579 30.0592 -53.2606 644.681
19580 2 12.0824 -98.8615 -17.9395 -245.783 243.387 -306.445 -8.24585 -39.1051 -6.15838 -57.1407 526.827
19505 2 15.1023 -97.5339 -15.1581 -293.604 236.647 -263.106 16.4309 -43.104 14.9192 -65.5671 522.471
14741 2 15.5168 -96.8347 -20.016 -258.668 250.677 -221.35 31.2695 -22.3221 17.1722 -66.2386 497.122
19405 1 14.8791 -95.944 -15.1997 510.23 -541.436 495.146 -20.3888 137.305 80.0911 -396.581 1080.47
16637 2 16.8698 -96.3659 -17.8773 -311.502 241.319 -171.254 61.0781 -53.6908 25.7431 -65.0513 519.207
17077 1 16.9772 -97.1346 -19.2699 564.921 -469.422 378.751 -154.676 34.3807 -64.1649 -404.158 999.816
14294 1 14.8357 -99.0725 -14.756 664.838 -599.496 611.683 -13.9033 24.63 -43.8866 -418.103 1241.91
26904 2 22.181 -101.042 -19.4264 -379.748 500.393 -412.682 -48.042 36.5105 14.3803 -15.5125 903.472
19859 2 19.7118 -100.187 -18.7006 -451.831 386.77 -311.17 48.3646 45.3543 -29.1052 -39.4878 787.914
22071 1 21.0213 -100.075 -19.7009 783.918 -786.941 697.642 -40.6016 -79.9148 -14.5389 -470.058 1537.61
22104 2 18.1481 -99.7299 -16.4664 -390.93 320.902 -265.931 41.5895 18.9191 -46.0823 -49.3151 667.822
27157 1 17.8391 -99.6451 -14.9017 680.31 -637.661 690.088 -8.10671 -66.1757 66.0417 -428.573 1332.84
12110 1 18.7617 -99.1835 -17.8437 761.337 -563.191 463.042 -146.865 -37.8499 88.4453 -432.192 1241.26
17190 2 21.3759 -98.4532 -19.3687 -294.911 232.887 -282.595 108.66 60.4361 -12.0935 -45.7927 564.836
29301 2 17.6211 -98.5027 -18.7942 -337.547 251.505 -197.833 80.9155 0.95403 -2.46804 -59.6057 551.241
24657 2 19.9274 -98.0805 -17.4144 -288.427 225.824 -243.637 104.876 29.9425 -60.4037 -55.1595 538.572
1928 2 22.6882 -98.09 -16.9791 -201.189 229.151 -339.528 63.3677 74.7628 -103.361 -49.9407 569.85
24409 1 21.4313 -97.6647 -17.947 459.277 -429.839 569.105 -243.083 -144.828 129.847 -428.194 1091.34
27070 2 17.9916 -96.5163 -20.3636 -265.975 243.753 -222.081 109.509 -8.29912 28.0024 -67.2237 527.173
29298 2 21.5686 -96.0814 -18.0615 -189.207 198.431 -252.399 144.506 40.6434 -82.1363 -62.5433 516.326
27095 2 26.0769 -99.8523 -15.9005 -434.352 429.894 -515.907 -17.5954 -84.1682 -35.0839 -44.575 921.917
29389 1 26.7825 -98.4253 -16.3481 800.566 -657.037 798.036 -12.8242 154.6 224.737 -427.402 1531.22
19688 2 27.5444 -97.7763 -17.6249 -411.187 316.295 -329.119 -11.7501 -94.6949 -156.646 -50.6082 759.732
29569 1 23.9013 -97.5274 -16.0595 423.731 -477.673 671.516 -25.8339 6.54918 286.118 -418.325 1159.74
21898 2 25.3894 -97.5529 -16.6602 -290.378 260.742 -340.112 18.8791 -45.5341 -170.749 -58.5069 654.501
4599 1 27.4049 -96.2591 -17.8428 675.884 -489.159 486.392 -85.6285 136.784 382.583 -409.701 1299.89
24504 2 23.4905 -96.1324 -15.3524 -206.592 235.831 -253.771 12.5723 -26.9451 -117.284 -64.4801 512.597
29792 2 27.5929 -95.5991 -16.3405 -286.317 249.139 -212.115 93.5414 -10.5132 -143.082 -64.4584 583.512
24558 2 26.1619 -95.6584 -18.716 -255.861 180.818 -239.149 41.5052 -71.2394 -162.136 -68.7133 531.91
27246 2 27.5262 -98.055 -14.9283 -345.081 279.804 -390.015 50.9411 -37.4361 -69.6601 -57.697 668.675
29 2 24.1762 -98.672 -14.9305 -271.036 293.484 -399.76 25.9686 -53.5983 -110.485 -56.122 674.672
2327 2 -21.0305 -95.5151 -20.6165 -209.609 168.576 -260.621 -60.4428 25.5043 25.2027 -61.4942 423.952
9799 2 -21.8595 -94.8771 -17.745 -146.448 116.742 -227.583 -51.9556 6.9441 -8.04464 -59.6875 325.027
4993 1 -21.5722 -94.5136 -19.3499 295.761 -212.829 466.475 129.945 -30.4156 -44.7478 -405.524 658.84
7205 2 -22.0071 -94.1996 -15.0156 -75.2811 53.2278 -237.931 -63.1456 28.6866 -43.9069 -64.8982 289.975
29762 1 -22.1367 -93.8662 -16.4943 180.3 -151.204 416.565 116.95 -30.5375 75.5447 -406.603 552.259
7113 2 -23.715 -93.46 -16.8196 -27.3167 10.3204 -246.267 -63.945 -12.6569 -32.015 -61.6765 270.959
9473 2 -20.3355 -93.5339 -19.3825 -163.25 133.299 -206.656 -75.1496 40.6431 38.046 -72.7592 359.08
27633 2 -22.7457 -93.473 -19.8062 -69.6522 64.3206 -221.586 -64.5467 23.3715 24.95 -66.3575 278.195
9894 2 -21.2493 -92.5759 -16.7151 -121.42 135.763 -192.826 -41.9389 21.5455 -37.6216 -69.948 317.052
4983 1 -23.6041 -92.0906 -20.1468 84.7085 -151.512 394.139 42.1922 -31.6641 -64.1788 -398.646 495.324
26871 1 -20.5282 -91.1619 -16.5243 316.833 -407.378 398.981 37.4328 -60.3218 59.7012 -390.017 785.197
7685 2 -20.3096 -90.9909 -14.8985 -172.194 227.754 -215.326 -20.9369 14.9432 -37.9021 -70.4625 430.539
29648 2 -23.021 -90.8727 -19.2163 -47.0136 148.411 -235.093 -8.25387 10.2804 37.5905 -69.175 339.235
1640 2 -21.4592 -90.026 -17.2779 -93.1704 189.625 -246.105 -28.721 11.2292 1.30849 -71.3586 386.613
2608 1 -22.221 -89.5366 -18.6758 100.533 -369.017 522.351 38.0831 -0.972481 -61.0507 -391.328 782.309
2035 2 -19.0322 -91.3238 -17.3306 -197.681 250.247 -198.047 -46.3588 36.0923 -0.203669 -76.544 459.521
4495 2 -13.7641 -95.3583 -20.0896 -237.31 277.988 -217.808 -97.9468 60.5454 55.1776 -77.1848 552.064
27087 1 -16.7882 -95.0421 -18.3246 385.323 -346.152 402.976 296.999 -41.2664 -42.9916 -385.989 907.501
7410 2 -13.6613 -94.8321 -15.3848 -171.162 164.91 -204.265 -56.1265 -32.144 57.0757 -72.9365 384.042
29673 2 -17.9921 -94.5928 -19.2608 -172.61 155.02 -205.654 -138.016 66.9095 34.6166 -73.1509 439.807
1944 2 -15.829 -93.7417 -18.0794 -174.186 246.884 -248.052 -106.618 13.6302 10.1565 -77.0024 498.826
29654 1 -18.9005 -93.573 -20.0037 374.989 -349.804 379.066 200.027 -136.454 -77.4803 -385.571 849.822
14780 2 -14.1288 -92.2937 -19.3638 -174.088 297.365 -270.93 -43.2011 4.72506 3.83211 -73.5521 531.99
4732 1 -15.1902 -92.233 -18.1465 317.525 -625.109 578.183 125.213 -24.9673 -19.2044 -384.644 1119.02
2132 2 -18.3048 -92.1856 -19.7031 -199.782 253.763 -197.972 -79.9847 61.7601 27.7829 -75.9625 487.685
12271 2 -14.3691 -91.4894 -16.9552 -188.209 318.058 -273.302 -68.7598 12.1447 25.8611 -72.9735 568.559
9869 2 -16.5389 -91.2309 -18.2811 -151.554 315.264 -269.994 -63.2619 36.8458 25.1911 -75.7175 552.468
2524 1 -18.1011 -91.0578 -18.6177 367.119 -567.787 464.805 120.595 -105.568 -49.6683 -380.269 1029.26
4900 1 -13.5869 -90.035 -16.9524 348.368 -578.017 485.489 204.862 -36.1392 -140.474 -392.4 1092.26
27167 2 -18.5857 -89.8069 -19.3204 -200.669 239.197 -190.552 -24.3845 59.296 25.0991 -78.9943 450.95
9899 2 -17.3425 -93.9242 -14.7341 -216.111 160.982 -168.959 -90.8456 -34.3433 -12.5926 -80.25 394.227
9814 2 -14.293 -89.27 -18.2014 -219.029 276.522 -222.735 -94.1665 -19.4527 47.7274 -74.679 531.029
7772 2 -13.7381 -89.1505 -15.6417 -180.829 294.543 -220.794 -93.0358 48.2126 76.454 -72.039 545.022
9506 1 -9.69068 -95.4387 -16.3308 186.92 -443.659 600.246 111.815 -164.831 -69.0027 -404.596 981.021
7053 2 -7.16339 -95.2725 -18.8091 -104.484 231.893 -348.146 -36.4164 47.7874 7.61712 -68.2662 515.254
29566 2 -11.234 -95.1719 -15.8976 -103.162 191.69 -285.689 -61.7428 55.1279 62.3622 -66.9788 454.195
5069 2 -8.85026 -95.0118 -14.9832 -126.581 209.915 -274.163 -52.3583 72.2272 34.1413 -62.498 460.481
16822 2 -9.27697 -94.5378 -17.6174 -73.6351 239.388 -330.807 -26.4477 45.4212 24.6299 -66.9564 504.707
27068 2 -12.8285 -94.4527 -17.7307 -175.282 269.911 -294.105 -61.5091 14.9882 36.2048 -75.2421 530.256
19117 1 -8.41044 -94.1854 -18.9691 142.636 -492.637 694.894 65.4533 -90.0402 -0.530085 -399.896 1047.17
7117 1 -12.4385 -94.1862 -16.1938 290.272 -449.851 512.941 78.4393 -26.2117 -80.8171 -392.881 895.7
19703 2 -9.30243 -93.9557 -20.2877 -79.2747 240.039 -334.995 -36.4396 54.2596 -29.3537 -67.3951 514.208
14405 2 -7.43343 -92.9085 -19.0096 -125.679 242.29 -335.815 -32.7432 58.7115 16.8206 -65.9404 520.853
179 2 -11.7598 -92.7402 -16.1933 -130.027 238.771 -266.088 -33.4045 41.8649 40.0565 -67.7955 467.035
29407 2 -11.5823 -92.0033 -18.657 -129.705 234.911 -290.595 -45.3821 19.6587 -14.7928 -70.2521 474.855
9795 1 -12.6127 -92.017 -19.9614 363.636 -549.434 510.427 84.8827 5.23757 59.9293 -391.559 1010.82
12099 1 -11.0545 -91.6417 -17.182 183.489 -441.942 574.448 52.2569 -104.275 -59.7545 -401.926 916.545
4281 2 -9.50823 -91.5836 -17.1015 -77.936 203.284 -295.726 4.34191 63.2473 44.5174 -64.1411 453.616
4622 1 -8.07668 -91.126 -16.5568 197.736 -426.384 566.29 -7.18138 -135.868 -104.63 -407.822 918.563
11913 2 -8.58332 -90.7501 -15.055 -95.0931 202.309 -290.584 1.56933 48.0785 51.2975 -63.2689 446.811
7379 2 -12.5835 -90.5608 -20.5728 -188.97 223.263 -233.747 -71.4702 -8.87356 -54.5973 -71.6528 463.575
2300 2 -11.9615 -90.2734 -17.0133 -109.879 239.295 -264.08 -61.4892 50.6053 59.6707 -66.0225 478.801
2016 2 -7.62553 -89.8012 -17.4083 -118.765 209.397 -265.981 5.78601 57.4791 22.4194 -63.379 434.964
19902 2 -8.3127 -89.5253 -19.8846 -103.889 174.82 -271.394 41.0938 51.0005 4.06108 -62.4462 406.621
12006 2 -11.6269 -92.8891 34.8815 -180.286 295.408 -253.554 -13.8565 30.6868 -26.7055 -69.4911 521.581
16617 2 -5.61693 -95.2718 -16.6551 -169.128 236.673 -321.981 2.69864 42.5934 65.4946 -65.7259 518.073
19501 1 -5.60455 -95.36 -18.2264 296.122 -520.584 630.587 83.7626 -123.206 -37.2247 -399.348 1059.61
14431 2 -3.11603 -95.1306 -15.9552 -86.3752 222.73 -317.729 28.4748 74.2597 96.6562 -64.7033 517.288
7024 1 -1.72374 -94.6632 -15.226 135.782 -496.532 636.682 15.8554 -135.778 -99.6045 -400.126 1026.29
12309 2 -5.13089 -93.996 -18.9933 -137.745 277.394 -330.828 -9.84031 49.7746 4.65522 -66.345 545.495
11852 2 -1.74298 -93.1521 -16.0092 -108.96 307.254 -325.643 -10.8419 73.9061 49.3902 -69.6402 578.299
6915 1 -6.05794 -92.9547 -19.7336 273.561 -547.909 664.674 -7.68817 -68.199 30.4212 -403.718 1079.8
12216 2 -2.65461 -92.0845 -20.7837 -110.356 270.214 -335.543 -3.23653 45.0395 -50.0054 -64.3886 543.011
20025 2 -6.81469 -92.0789 -16.2815 -115.855 240.278 -293.154 -1.69646 86.5606 48.4324 -64.2698 500.93
17276 2 -4.04548 -91.9239 -16.1572 -90.6521 259.954 -330.111 23.9382 81.5329 35.397 -67.2851 538.184
12316 1 -5.47293 -91.8038 -15.4205 199.067 -504.415 637.678 -32.0525 -152.569 -87.1851 -401.995 1044.77
9616 1 -2.42628 -91.7173 -16.0931 189.244 -536.687 618.321 13.7837 -135.067 -57.4951 -392.239 1042.97
1833 2 -5.23363 -91.6267 -20.0376 -141.708 269.032 -295.114 25.6835 28.4022 -31.1858 -63.9971 512.414
17202 2 -1.84196 -90.6802 -17.2394 -139.879 203.723 -206.99 -24.2285 63.632 -0.85064 -71.5621 399.42
14603 2 -5.58804 -90.2927 -14.9739 -91.0247 194.089 -308.266 -17.018 49.1158 41.4454 -68.8153 451.31
17465 2 -3.72003 -89.567 -20.1403 -140.987 182.947 -210.697 -1.07616 52.565 -23.4884 -65.7894 377.255
12363 1 -1.72222 -93.4371 -20.8453 220.777 -584.602 729.99 -39.6628 -94.1358 109.666 -402.897 1177.04
7204 1 -3.8911 -91.0141 -20.8309 287.615 -486.75 553.88 -10.4667 -97.8852 109.983 -405.703 970.612
11837 2 -1.97352 -90.9696 -14.6833 -94.7588 222.617 -341.783 -34.3063 53.394 19.4342 -77.9259 503.352
11919 1 2.89542 -95.2949 -20.5827 215.146 -227.361 473.32 -65.8261 -10.4924 233.733 -399.949 744.267
6924 2 0.00984158 -94.747 -15.5658 -142.749 261.538 -305.164 -68.2339 80.5006 25.3479 -74.0169 539.282
7327 2 2.52814 -94.5086 -15.5472 -230.386 314.047 -273.171 -73.0785 42.6458 9.54566 -81.7748 585.903
9243 1 0.583099 -94.3257 -18.9852 365.099 -457.532 430.296 -32.6051 -133.112 90.8781 -394.248 903.176
19397 2 1.80757 -94.2332 -20.0721 -139.216 181.89 -235.653 21.5567 13.7354 -93.7215 -69.9709 414.352
7423 2 -0.861453 -93.7768 -19.5108 -150.521 259.475 -267.047 18.5988 66.1787 -22.5792 -67.5667 495.132
14679 1 1.16006 -93.7885 -16.0758 404.853 -662.528 503.922 161.471 -152.634 -43.3567 -380.571 1186.85
9428 2 1.17747 -93.6285 -17.6602 -218.392 285.718 -181.766 -37.9553 52.7767 -10.8041 -72.2457 500.033
11934 2 1.14191 -92.2557 -15.6069 -207.956 324.614 -275.772 -91.1191 43.6767 7.18764 -79.5644 595.93
14872 1 -0.828259 -89.4302 -17.4619 323.949 -375.87 327.418 53.5908 -50.1451 85.7266 -386.591 728.281
12002 1 1.2199 -90.6618 -15.3948 362.446 -500.298 528.021 142.102 -14.1146 69.7537 -371.202 995.171
2118 2 4.12584 -90.2759 -17.2488 -183.737 241.971 -196.725 -31.942 -60.4755 -46.562 -72.4195 455.48
7400 2 3.49012 -90.1722 -19.9751 -157.697 183.269 -174.673 -51.9719 -47.0723 -3.74336 -71.1844 370.307
17084 2 2.71788 -90.1576 -15.1823 -151.229 273.263 -260.098 -28.3435 -30.5323 -64.0236 -78.8286 505.731
24400 1 4.25845 -89.9732 -15.6598 316.796 -562.158 488.43 20.9086 56.1821 141.293 -386.633 1011.71
21706 2 0.455507 -89.9102 -16.6056 -179.757 225.081 -195.471 -36.1424 -1.46523 -49.5792 -78.0925 426.382
9410 1 4.38509 -89.6611 -18.7233 356.302 -408.272 329.852 111.858 108.43 -14.8503 -391.573 799.074
12010 2 7.90714 -94.9747 -17.9763 -218.327 243.465 -206.861 26.4202 -50.952 -60.6817 -70.4694 478.558
12503 2 6.80435 -94.5733 -20.5417 -222.71 192.953 -169.837 -23.507 -106.22 -135.528 -71.3163 494.169
14592 2 5.45812 -94.3134 -18.454 -217.803 232.028 -186.369 11.7922 -63.8866 -119.202 -73.2572 494.455
16983 1 6.961 -94.0571 -18.9904 451.922 -462.909 367.153 -28.3125 121.877 224.057 -390.691 981.898
24493 1 8.3038 -92.6178 -15.0837 314.038 -390.747 381.417 -61.9974 34.0475 94.3104 -390.497 768.402
17013 2 10.2168 -92.6324 -18.2441 -139.38 158.204 -160.057 30.4708 -32.9465 -28.4826 -66.4853 321.889
11997 2 7.30541 -92.5296 -19.0004 -228.322 206.981 -157.039 3.71512 -32.7946 -65.9787 -71.3316 424.108
26897 2 8.41985 -91.7506 -16.4093 -171.714 202.996 -165.486 23.9618 -15.116 -52.8147 -68.6477 385.861
21901 1 9.44118 -91.3283 -17.5799 301.448 -352.444 333.566 -59.9163 24.6408 58.7604 -400.539 687.428
11810 1 7.30394 -90.9554 -19.4904 396.98 -369.334 290.801 36.3053 72.1099 45.38 -393.567 736.802
19306 2 8.70116 -90.5635 -18.7936 -152.786 185.534 -160.42 8.98938 -11.4773 -13.7878 -67.4382 343.962
22195 2 10.4592 -90.3329 -16.8256 -151.612 196.588 -184.148 25.8299 -16.0564 -16.9667 -67.158 370.499
17096 2 6.00662 -90.0843 -19.0023 -187.782 207.371 -159.516 -51.0237 -59.3919 10.0925 -70.4351 405.554
24513 2 9.34215 -93.7869 -15.1553 -152.981 173.213 -198.556 34.5783 -10.4808 -29.6492 -71.3445 360.416
14501 2 5.13255 -91.0493 -14.8248 -142.868 292.667 -268.207 -31.0688 -2.36905 -78.1508 -73.609 530.307
1824 2 16.3909 -95.312 -15.51 -223.727 245.866 -236.665 29.1536 -52.6568 -42.8085 -69.3933 493.079
19425 2 14.0231 -95.2134 -16.3768 -230.725 248.142 -210.539 -8.17087 -51.8307 -33.736 -66.5138 481.382
17109 2 11.3748 -94.1679 -20.1022 -195.371 220.477 -179.296 -8.88833 -26.0215 -7.63074 -65.3946 411.031
17489 2 12.5193 -93.5822 -17.7707 -167.063 175.334 -162.075 -4.39107 -3.39507 -26.9055 -64.9594 343.245
12183 1 13.6837 -93.6115 -16.6528 371.173 -390.256 405.043 30.4319 64.9558 88.733 -398.079 803.597
17187 1 11.5565 -93.1367 -18.9171 332.336 -344.752 311.85 -30.6411 33.5152 18.8296 -404.095 672.493
24606 2 13.2576 -92.9212 -15.3155 -171.091 214.316 -225.043 -10.1896 -71.6793 -43.7005 -70.7811 440.11
19403 2 14.9808 -92.8017 -17.1494 -193.902 191.404 -208.359 -2.18385 -41.0171 -45.8365 -69.7738 406.945
14896 1 16.536 -92.4948 -17.389 353.122 -399.916 393.55 -67.4297 114.286 100.169 -396.674 825.875
17039 2 12.246 -91.8158 -19.6455 -182.099 163.728 -148.111 27.4424 -9.70617 -16.9329 -67.9057 335.26
27349 1 12.832 -90.7111 -20.6244 316.118 -287.828 317.523 -48.5906 -3.08505 1.57171 -395.732 610.508
19387 2 13.9371 -90.3584 -15.2108 -188.978 227.743 -242.003 6.10446 -49.1984 -18.9834 -70.6148 454.993
12324 2 13.6635 -89.5887 -19.7977 -173.784 152.38 -172.601 16.6046 -33.8242 5.25994 -69.281 332.175
24764 2 16.697 -89.454 -20.4144 -159.14 158.315 -226.721 34.0991 -38.1691 -23.0078 -72.6255 369.115
12223 2 16.9351 -91.2946 -18.4265 -161.09 173.598 -155.555 37.9922 -48.5757 -56.4809 -68.9329 362.179
27201 2 18.8312 -95.3883 -16.2208 -162.643 223.594 -209.557 62.2834 -30.5676 -25.9563 -64.9843 431.233
7115 2 17.2286 -92.0781 -15.9476 -147.178 208.719 -238.034 54.3661 -34.7696 -29.2057 -69.3625 426.972
14416 1 17.3442 -95.2683 -16.8088 438.728 -469.919 410.976 -74.4588 115.86 15.0293 -400.875 926.7
22012 1 19.6691 -94.9466 -14.9047 274.439 -439.866 476.616 -123.939 40.1416 88.441 -404.065 877.442
17179 2 19.6562 -94.9911 -19.348 -183.256 211.24 -222.383 130.364 -10.6292 -14.4703 -67.1837 473.861
24378 2 17.2392 -93.9014 -17.6342 -219.356 220.224 -198.91 23.9991 -71.6661 -22.7342 -67.8306 450.941
22361 2 21.1908 -94.8784 -15.3353 -160.36 206.359 -215.791 61.4703 -35.2664 -60.14 -65.8511 428.719
2030 1 21.0824 -94.6976 -18.694 306.142 -351.846 448.581 -278.03 -8.86522 80.3825 -398.466 893.579
14433 2 22.0707 -94.5417 -20.034 -118.6 116.872 -223.883 148.826 5.69174 -16.8243 -69.9146 398.393
17100 2 21.1698 -93.2754 -17.993 -128.68 160.494 -213.458 68.446 -30.7545 -18.3035 -70.9022 364.996
19588 1 21.9523 -91.806 -18.3102 246.187 -312.686 410.502 -16.5051 68.9573 -1.6908 -388.63 668.028
16817 2 18.3747 -91.4499 -20.5021 -166.199 189.2 -221.761 10.08 -18.152 -31.3729 -71.4305 391.648
19500 2 21.0381 -90.5469 -18.2608 -139.144 189.709 -200.76 -9.9825 -22.1988 -13.1399 -70.8206 366.74
15064 1 17.6339 -90.3616 -19.4932 321.112 -332.304 337.738 -75.2375 31.0408 68.8998 -392.693 687.173
19761 2 18.734 -89.4781 -18.7439 -158.536 177.491 -162.034 36.5108 5.17696 -16.5328 -70.4855 344.966
16969 1 22.8088 -94.7419 -14.927 415.374 -452.245 389.98 -62.7833 98.8322 169.176 -401.131 926.48
29601 2 22.7531 -92.2419 -19.6132 -94.7337 123.112 -218.612 37.2436 -19.3317 -23.6845 -75.6654 311.054
22299 1 19.6375 -89.5068 -14.8605 276.26 -327.907 423.711 -30.0671 9.68014 -6.74163 -401.044 692.079
27097 1 20.0934 -89.2176 -17.901 317.395 -375.688 380.541 -32.3432 24.4089 34.4575 -395.377 732.533
21988 1 18.8931 -95.3082 -20.682 444.349 -514.979 435.73 -247.306 26.0357 -8.20736 -400.45 1047.78
19532 2 22.9497 -91.5229 -17.0769 -148.133 152.063 -188.693 20.8858 -58.1033 24.0545 -72.914 342.215
5 2 28.498 -95.3923 -18.6772 -246.363 152.381 -224.465 42.4765 -65.5987 -122.283 -65.5798 462.521
24675 1 28.1096 -94.7915 -15.0377 439.343 -505.561 456.747 -278.74 -46.1944 162.96 -407.66 1108.49
2223 1 28.617 -94.6206 -20.0482 348.022 -146.544 465.888 -90.807 187.296 49.346 -386.541 673.841
14510 1 25.9054 -94.2387 -19.3476 339.344 -156.674 465.341 -74.1516 138.065 139.564 -375.656 675.664
10 2 24.593 -94.0391 -20.1595 -79.8587 42.1981 -234.933 65.8591 -38.5308 -25.2259 -77.5498 277.937
27371 2 27.1265 -93.7589 -20.4084 -202.517 59.9546 -237.213 37.9422 -86.5568 -9.31521 -83.4301 325.971
22367 2 23.445 -93.483 -15.5991 -194.593 196.133 -188.833 45.0216 -69.2871 -55.2535 -69.6143 424.372
27299 2 28.3155 -93.2657 -15.5057 -173.618 183.962 -185.325 126.336 45.9958 -36.536 -66.9825 436.372
2032 1 23.1336 -93.4886 -20.5379 128.839 -126.299 403.92 -169.785 10.3033 14.0982 -384.719 546.209
14598 2 26.1639 -93.1196 -18.1727 -164.232 110.712 -204.286 53.8583 -57.4579 -26.8682 -79.6029 330.127
29761 1 23.7952 -91.8955 -15.7295 346.813 -342.904 361.953 -95.913 137.828 -72.1092 -394.013 765.877
27079 2 25.3616 -91.6938 -16.074 -127.702 161.006 -173.074 65.9373 -53.6496 48.146 -70.0295 356.57
20152 1 26.2569 -91.7382 -17.3726 259.849 -309.969 364.767 -167.801 70.5027 -71.1399 -384.962 714.178
24611 2 27.775 -91.3108 -16.9727 -134.522 163.862 -168.865 112.069 11.2481 32.6649 -72.7759 376.456
24972 2 25.6596 -90.7277 -18.5077 -128.762 200.657 -208.806 66.9162 -44.4289 29.8628 -75.8573 404.131
29667 1 25.4743 -90.2723 -20.0461 211.179 -456.718 464.324 -31.0254 30.7531 23.2406 -380.894 828.606
22267 2 24.106 -89.5693 -20.4149 -112.409 220.139 -221.404 -12.7914 -6.62744 -18.4952 -73.5179 400.454
5162 1 28.7177 -91.7143 -15.7322 279.702 -279.67 309.564 -200.634 -65.9671 1.99355 -396.095 681.412
9669 2 29.009 -89.7657 -19.3905 -131.647 171.592 -222.962 77.9966 4.30585 56.5143 -77.8125 394.804
27177 2 35.0048 -92.572 -19.8796 -19.4917 27.0855 -216.298 -11.5591 -12.6156 42.8437 -65.5921 237.6
7492 1 34.8821 -93.4153 -16.6047 87.0412 -71.3974 513.976 107.267 63.4324 36.2243 -414.092 570.566
27562 2 33.6387 -94.8619 -20.5696 -75.0697 50.8578 -264.571 -5.05034 14.5636 23.0223 -55.2839 279.168
4740 2 34.2914 -94.2403 -15.3525 -57.1921 67.2356 -320.452 -31.8737 -41.0625 -45.5943 -56.3444 363.163
29289 2 34.2189 -93.9872 -17.9572 -76.3559 44.7234 -232.2 -26.4688 -8.07267 10.5366 -56.8635 245.86
2515 2 29.7258 -93.5212 -19.9891 -70.7509 69.637 -246.533 88.9421 -64.5153 46.9262 -74.2688 343.672
9928 1 33.8092 -93.6806 -19.4246 81.4526 -33.9818 432.173 14.7727 -13.6309 -86.9683 -413.733 448.015
4823 2 32.3534 -93.0347 -19.3848 -31.6429 38.0703 -223.425 14.7922 -2.24534 73.8336 -65.5487 268.395
9724 1 30.8931 -92.4594 -19.6837 87.3845 -183.462 430.21 -127.25 22.5339 -158.922 -390.598 640.008
27012 2 34.5752 -91.8387 -16.3927 -51.2336 85.4118 -266.451 -44.3191 -37.666 -0.823598 -65.5873 323.342
128 2 30.3075 -91.7277 -15.5933 -120.462 107.786 -180.894 83.3158 6.15192 -26.0439 -69.621 304.164
1781 2 30.4685 -91.6751 -18.3481 -76.511 107.946 -192.307 82.7979 19.971 58.4749 -72.7942 317.512
29769 2 32.6022 -90.5772 -15.5355 -117.531 147.603 -229.771 41.3967 -20.6346 8.34511 -70.0822 345.369
2044 1 34.0277 -90.3616 -16.3044 175.992 -326.794 518.104 5.04584 42.1507 -56.1833 -398.165 746.137
22276 1 30.1437 -90.105 -18.2771 218.93 -290.544 433.045 -159.115 -37.3667 -111.334 -383.18 729.261
29852 2 33.8413 -89.5354 -17.6959 -62.7815 169.504 -240.054 12.4345 -15.6543 45.0427 -69.8352 365.849
22471 2 31.4863 -89.3322 -18.616 -103.344 145.692 -226.858 61.2032 13.5879 62.1871 -75.0826 362.529
366 2 34.9387 -89.3544 -15.3372 -93.1499 197.182 -244.091 3.01854 -21.4603 60.5756 -66.7706 404.124
24612 2 -21.0921 -89.1942 -19.7212 -137.812 187.136 -206.596 -20.0685 24.833 14.4517 -76.4225 369.268
7419 1 -19.5718 -88.8238 -20.2179 412.859 -401.297 263.67 34.8662 -89.5204 -26.39 -376.187 770.339
4955 2 -23.1676 -88.1255 -18.5201 -32.6227 161.149 -268.639 -45.8454 -52.6815 47.1955 -70.848 400.373
29750 1 -23.7143 -86.6135 -18.4769 66.4514 -243.866 415.816 42.7816 112.077 -148.411 -388.184 660.316
2100 2 -23.5544 -85.8261 -19.8789 -51.9218 101.835 -161.121 -15.505 -58.0934 46.6536 -74.3433 264.067
14962 2 -22.8624 -85.661 -17.465 -25.5955 101.937 -205.194 -11.1459 -43.2456 93.4985 -75.5478 321.922
4803 1 -24.7156 -85.0902 -14.7445 170.11 -200.651 360.333 -79.21 26.1982 -97.1861 -379.543 541.658
2586 2 -20.7379 -84.6867 -16.4022 12.9318 93.17 -199.434 -43.5482 25.5838 89.7897 -78.7873 316.886
2025 2 -23.1352 -84.6816 -15.0254 -26.1557 79.0462 -174.29 25.3681 -16.9368 69.8391 -76.7738 256.941
2522 1 -22.3118 -84.4713 -16.4362 -1.3502 -180.297 394.571 25.1461 52.9292 -178.088 -380.215 604.213
27827 2 -19.5014 -83.6294 -18.3811 -117.673 129.522 -109.468 -25.9312 46.2497 47.1026 -81.3612 272.46
4971 1 -19.3183 -84.6588 -17.1095 153.293 -256.167 267.777 84.3906 -154.066 -139.607 -368.673 615.374