ITEM: TIMESTEP
1360000
ITEM: NUMBER OF ATOMS
29952
ITEM: BOX BOUNDS pp pp pp
-2.5093087473165852e+01 3.5078381815859899e+01
-1.0457577082278753e+02 1.1456106516478754e+02
-2.0985542515027589e+01 3.4853395661184415e+01
ITEM: ATOMS id type x y z v_StrAtomXX v_StrAtomYY v_StrAtomZZ v_StrAtomXY v_StrAtomXZ v_StrAtomYZ c_PEAtom v_VMS
2327 2 -21.0247 -92.4325 35.0119 -175.108 110.529 -234.532 -81.3184 4.65669 26.3563 -61.4441 352.251
4519 2 -13.9827 -96.465 -17.8022 -348.881 378.613 -390.286 9.45908 -0.800467 -42.5542 -60.8357 752.852
4248 2 -13.9468 -94.3274 -15.8499 -267.506 228.823 -229.012 -91.7784 -63.3189 79.9779 -67.3163 534.046
12116 2 -13.4277 -93.8257 -18.2641 -261.487 206.195 -246.669 -93.4276 21.9336 75.6917 -79.9724 506.787
2196 2 -15.828 -93.0151 -19.3968 -178.704 158.61 -194.84 -156.423 46.8476 71.5327 -73.6779 463.49
7411 2 -17.2945 -92.4262 -17.0417 -178.805 112.87 -124.089 -116.702 -25.7863 35.7673 -69.4932 344.673
4527 1 -13.5003 -95.0248 -17.1876 603.3 -531.822 573.477 153.479 49.2105 -81.594 -393.954 1163.38
29775 1 -14.8204 -93.1341 -20.7507 464.085 -321.564 291.37 273.732 -202.836 -149.555 -376.753 962.65
4495 2 -13.5319 -92.2852 -20.2802 -201.309 214.72 -186.776 -56.1454 90.2046 61.5558 -78.8523 460.956
9700 1 -17.2685 -92.4152 -15.4258 382.554 -179.538 313.714 197.256 123.579 -122.84 -386.72 699.862
6926 1 -14.283 -93.0936 -14.8761 384.704 -266.298 336.317 186.219 138.988 -195.399 -391.976 819.251
2278 2 -15.8881 -92.956 -14.9702 -189.106 115.411 -188.217 -101.032 -90.7446 93.2738 -73.5086 416.997
14621 2 -12.7776 -96.4291 -20.0808 -352.104 303.602 -335.524 -7.10044 146.299 -36.0235 -70.7439 698.29
24571 2 -11.1995 -97.7074 -18.4501 -310.104 423.82 -502.169 -7.79928 103.952 -84.8712 -55.1681 877.897
12319 2 -8.55719 -97.3778 -19.4259 -136.163 290.531 -467.419 -27.0336 16.8844 -65.8726 -54.7831 670.23
4816 1 -12.4938 -96.7785 -18.5168 691.052 -714.844 841.056 13.6642 -164.266 122.15 -404.042 1528.47
7300 1 -9.76732 -96.9277 -18.4616 311.888 -561.927 904.371 64.1399 -176.131 135.705 -414.655 1339.02
9608 2 -9.0845 -96.5612 -17.076 -178.685 254.512 -386.152 -20.464 117.348 -28.0405 -59.2824 604.568
7017 2 -12.034 -95.6658 -17.3851 -259.181 263.198 -350.247 -57.4972 62.5829 -4.15213 -69.1099 592
17086 2 -10.2046 -95.6211 -19.3552 -88.1133 193.832 -410.397 -30.8862 73.5829 -44.2491 -71.1565 546.997
9517 1 -8.61133 -95.4407 -16.0712 373.72 -418.984 588.995 54.6089 -233.903 -35.4365 -409.307 1011.05
4899 1 -10.458 -94.2845 -20.2281 76.4692 -339.075 688.476 -16.5515 -114.36 43.3091 -384.12 920.45
9438 2 -9.24898 -94.0365 -16.5693 -109.05 191.729 -263.045 -48.0103 119.874 25.4787 -67.3539 460.948
9798 2 -11.2819 -93.1372 -19.5106 -109.711 212.697 -302.486 14.2931 55.4492 30.9295 -78.5403 464.724
7201 1 -12.6709 -92.6208 -18.9938 378.523 -471.608 507.848 83.6677 -103.036 -147.883 -374.067 983.794
12202 2 -9.02453 -93.825 35.22 -14.7506 172.91 -354.745 24.1155 5.17923 -21.4758 -72.5444 466.717
9506 1 -9.60865 -92.514 -16.4476 157.201 -358.948 481.797 91.1458 -173.775 -69.774 -397.922 818.189
12367 2 -7.08305 -95.5756 -20.666 -88.5598 206.165 -384.579 -53.2715 -11.9064 -33.162 -69.9756 523.424
14115 1 -7.05099 -97.0562 -19.9327 283.97 -483.325 814.475 81.4201 43.0082 118.256 -415.188 1159.58
19496 2 -6.97869 -95.2838 -16.198 -191.979 199.547 -301.576 -4.35557 42.6802 9.4517 -64.4199 462.605
12177 2 -3.56979 -97.833 -18.8556 -349.202 384.375 -392.852 -21.8445 31.3731 -48.6613 -55.6005 763.904
7095 1 -2.99724 -97.5874 -20.3388 697.559 -739.544 833.291 52.0058 -136.138 33.9756 -410.865 1531.64
9885 2 -6.02088 -96.9857 -18.7122 -207.66 259.639 -350.172 -27.4697 -2.20537 -40.9548 -60.4365 559.092
14618 1 -4.57039 -96.9196 -17.9465 528.869 -589.547 681.865 3.3764 -0.456521 47.3205 -415.683 1205.04
16917 2 -4.78213 -96.6994 -16.3477 -261.211 261.566 -355.702 -8.5381 8.38438 3.29557 -55.8882 576.267
17074 2 -1.60432 -96.7968 -20.1722 -270.383 345.004 -423.437 30.6892 118.531 12.7371 -61.8738 736.054
14307 1 -5.59562 -95.6367 -15.4195 468.135 -461.856 627.75 -23.6574 -22.7188 -39.9172 -414.381 1023.14
9630 2 -3.83191 -95.5608 -18.35 -191.804 243.839 -305.872 33.265 31.8563 24.6965 -67.5766 510.571
16881 2 -4.58628 -94.2895 -15.5131 -157.705 210.795 -277.892 57.9274 22.3634 38.8911 -63.4689 458.945
14684 2 -2.11955 -94.312 -19.9645 -151.677 230.97 -312.863 88.4319 106.604 22.0459 -73.5911 541.377
9712 1 -3.05638 -94.1892 -18.6463 237.704 -437.279 576.166 -94.8041 -137.298 -82.018 -392.238 949.901
17093 2 -1.6686 -94.1543 -17.633 -102.125 174.476 -291.362 81.6585 117.306 55.899 -69.4337 485.101
17135 2 -4.29966 -93.1612 -18.7233 -109.268 216.546 -265.583 -2.66195 60.8968 26.6883 -71.9093 441.363
17008 1 -4.30031 -92.7238 -15.5384 230.138 -361.17 506.084 -117.639 -92.4985 -115.608 -399.882 834.41
11918 1 -0.864362 -95.3576 -20.4324 382.708 -520.728 701.868 -217.258 -244.109 -28.0961 -401.26 1236.58
24524 2 2.6878 -96.0736 -15.2565 -354.025 366.198 -370.157 16.3092 30.0036 -22.1871 -68.6985 731.83
17006 1 4.18241 -95.427 -15.5534 664.148 -554.605 636.386 81.6065 92.4373 49.6293 -383.206 1226.91
4424 2 0.183608 -95.0094 -19.2842 -156.2 238.758 -309.437 98.1863 153.7 3.06752 -65.5089 582.938
12111 1 1.67119 -94.7647 -15.2725 508.215 -448.07 623.665 -34.6766 -130.553 28.231 -379.264 1046.59
12198 2 0.806054 -94.5745 -16.546 -182.618 203.154 -304.096 46.1596 141.89 -2.01885 -73.9654 526.538
12086 1 -0.0822453 -94.1292 -17.842 262.481 -401.641 543.69 -150.038 -338.295 -3.04318 -390.791 1057.25
12212 2 3.23349 -94.0246 -15.6837 -277.212 175.787 -272.141 -22.8575 -11.3518 -23.4549 -86.6228 454.468
17001 2 0.362491 -92.6523 -18.2975 -141.819 169.774 -208.115 45.9978 99.4485 -31.148 -76.322 401.336
14694 2 3.65554 -92.5763 -19.1265 -127.982 93.6393 -152.712 7.96263 -49.4262 -147.487 -77.9162 357.75
11929 1 3.81461 -92.4764 -15.3649 495.234 -441.669 386.29 35.6359 52.4706 12.7747 -359.355 894.508
14485 1 4.93574 -92.5572 -18.2194 335.955 -279.58 333.595 -6.47168 239.172 285.546 -373.194 890.944
19508 2 5.15166 -95.65 -16.8934 -285.109 304.99 -363.086 -41.2523 -127.058 -34.1753 -69.7967 676.277
9800 2 10.0988 -96.3956 -18.9938 -232.529 274.685 -415.905 -71.442 -106.331 -87.8735 -58.5783 675.499
19786 2 7.52315 -95.7257 -18.7214 -245.76 306.908 -398.302 -65.7928 -172.398 -55.031 -62.4768 724.052
17104 1 8.98545 -95.3517 -19.4257 455.75 -519.865 709.714 193.716 321.831 166.081 -406.666 1330.47
16815 1 6.39302 -95.0339 -17.8097 447.536 -490.915 684.701 92.4519 348.082 133.625 -394.016 1265.78
22211 2 9.24274 -94.0447 -18.5239 -189.977 213.387 -277.485 -58.0928 -123.415 -41.2534 -67.654 516.315
12321 2 7.35723 -94.0754 -16.8298 -178.761 183.253 -253.651 -8.29676 -113.912 -30.493 -71.4211 453.539
14443 2 5.70069 -93.8659 -18.6454 -201.072 164.456 -256.196 -27.0654 -132.144 -133.829 -76.1266 514.892
19227 1 8.60704 -93.1924 -17.3143 333.53 -407.826 438.658 -25.742 114.324 8.92704 -396.221 824.643
19784 2 9.44973 -92.8483 -15.9582 -145.462 171.414 -174.458 21.8311 6.25441 24.0891 -64.4294 337.235
22085 2 12.5005 -97.7052 -17.8601 -347.441 346.129 -384.718 36.812 -16.3097 -70.7069 -52.0635 726.735
17205 2 12.4775 -96.9292 -20.2146 -298.589 280.593 -393.758 12.3937 -71.3014 -75.4537 -60.2677 657.588
12364 1 11.6176 -96.7633 -18.8433 506.961 -538.105 798.22 37.3695 101.757 173.877 -417.436 1267.81
12302 1 13.6491 -96.6255 -17.5711 674.719 -482.417 513.285 -97.1045 -58.741 61.0234 -415.18 1108.17
24569 2 14.5519 -96.5505 -18.9455 -353.73 229.649 -252.495 62.1925 -13.9611 -68.0905 -64.6431 563.577
17050 2 14.1713 -96.5338 -16.0959 -356.209 264.532 -252.157 59.5333 50.1612 7.04506 -57.9243 591.512
19683 1 14.0364 -96.4029 -20.5085 608.638 -511.877 598.32 -14.3096 157.712 189.445 -400.744 1194.57
19580 2 12.3842 -95.5924 -17.9302 -223.531 216.271 -264.001 -15.7118 7.33544 -22.6122 -60.7988 464.003
19505 2 14.9927 -94.4091 -15.1076 -284.295 228.427 -216.358 -1.11337 -2.30348 4.0631 -69.0986 482.427
14741 2 15.7632 -93.5948 -20.322 -258.498 187.26 -160.761 9.89624 25.4794 9.07173 -73.399 408.869
19405 1 14.8665 -92.8103 -15.2415 435.112 -461.424 401.171 74.8498 66.3501 77.7114 -391.559 906.99
14294 1 14.924 -96.0295 -14.74 668.436 -517.38 474.86 -73.5122 -19.0099 -16.7789 -411.637 1110.06
21994 2 16.3744 -96.6172 -14.5617 -344.811 290.76 -284.379 42.4249 42.1652 -16.5927 -60.8247 617.052
16637 2 16.8901 -93.3853 -17.8677 -297.084 198.857 -121.012 30.9876 11.1512 16.9154 -72.9882 440.17
17077 1 17.1005 -94.0118 -19.3968 570.252 -391.362 247.439 -157.883 -42.5837 -31.7341 -389.776 895.394
26904 2 21.9799 -98.1333 -19.4998 -364.537 469.243 -361.865 -66.497 35.2482 23.6817 -19.8426 843.589
19859 2 19.6138 -97.156 -18.7517 -427.99 343.825 -250.223 29.4545 42.1776 -11.3784 -44.5124 705.992
22071 1 20.8819 -97.1314 -19.8202 757.577 -697.321 570.103 9.2592 -77.7932 -17.6791 -462.144 1377.85
22104 2 18.1072 -96.6354 -16.5705 -378.969 287.19 -210.687 40.9615 55.0224 -35.0432 -57.7988 614.642
12110 1 18.7431 -96.1055 -17.9709 709.277 -475.746 345.273 -110.48 -80.2758 63.5999 -417.944 1083.29
17190 2 21.4131 -95.5641 -19.502 -279.153 192.506 -218.208 62.3188 47.5297 -28.9858 -48.0143 467.311
29301 2 17.7985 -95.3984 -19.0702 -325.758 201.217 -135.748 68.5353 30.6521 -6.47128 -66.7708 480.324
24657 2 19.9362 -95.1011 -17.4898 -263.428 172.909 -173.343 78.5916 49.1834 -53.8478 -61.7202 440.095
24409 1 21.4039 -94.677 -18.1501 425.401 -322.591 405.218 -174.732 -142.821 131.877 -419.551 865.889
27070 2 18.3047 -93.2532 -20.1891 -249.295 201.055 -140.144 109.819 -6.56562 1.58377 -72.196 449.322
29298 2 21.308 -93.0446 -18.3661 -179.276 155.057 -171.988 126.875 23.6945 -86.9187 -66.495 426.656
1928 2 22.6661 -94.8328 -17.2316 -177.979 168.614 -254.548 34.9364 66.1179 -104.767 -56.8513 449.703
27157 1 17.9878 -96.4508 -14.9735 670.524 -558.223 543.45 -59.7555 -151.316 69.3331 -409.612 1209.81
27201 2 18.8529 -92.3378 -16.4044 -200.589 186.574 -154.155 47.4894 12.9428 -49.2802 -73.6625 385.522
29314 2 18.1832 -94.9219 -14.6195 -274.545 212.107 -226.809 22.738 48.031 -52.522 -71.8597 482.313
27095 2 26.0901 -96.8509 -16.2226 -414.164 387.391 -454.019 -43.8402 -99.47 -18.3855 -49.205 844.089
29389 1 26.6902 -95.4175 -16.5909 710.91 -570.126 706.214 -20.4256 184.022 190.265 -420.576 1358.86
27246 2 27.6312 -95.1758 -15.2801 -294.398 242.337 -379.778 31.0743 -59.5478 -41.447 -59.4259 599.908
19688 2 27.5008 -94.738 -17.8224 -363.988 283.604 -284.736 11.1063 -108.852 -135.152 -53.0581 681.943
29569 1 23.7957 -94.5561 -16.1015 382.176 -395.014 553.621 12.6445 27.5203 237.995 -406.436 969.196
21898 2 25.3048 -94.4478 -16.5988 -257.36 213.206 -289.314 20.1518 -66.5564 -149.579 -63.7571 564.906
24504 2 23.4395 -93.2459 -15.2851 -178.732 191.275 -213.144 2.20065 -32.7028 -119.626 -70.718 443.82
4599 1 27.4949 -93.133 -18.0019 599.033 -414.296 376.966 -64.4936 126.262 385.073 -405.424 1164.59
29792 2 27.6219 -92.4206 -16.6089 -250.844 193.191 -166.04 82.8621 -24.5335 -144.148 -67.726 501.441
24558 2 26.2275 -92.5379 -18.8667 -238.307 161.768 -181.914 30.9818 -64.706 -174.387 -70.4714 497.345
29 2 23.9935 -95.9107 -15.2332 -260.791 250.921 -367.073 -3.26711 -65.6159 -72.6 -61.1773 596.902
5 2 28.5888 -92.4012 -18.8897 -216.281 113.8 -195.744 14.8009 -59.8255 -124.209 -66.5037 400.343
9799 2 -21.7264 -91.76 -18.0527 -124.473 64.3017 -189.601 -63.7083 9.11269 6.8376 -59.542 254.436
4993 1 -21.4734 -91.3975 -19.5873 239.692 -104.671 385.379 166.956 1.5573 -63.7509 -406.65 534.604
7205 2 -21.9021 -91.2225 -15.1885 -47.2742 3.27975 -218.764 -58.8991 49.3902 -27.9812 -64.4433 246.391
29762 1 -22.1044 -90.8499 -16.7424 121.239 -14.0678 350.999 107.293 -63.6348 48.291 -408.093 394.797
9473 2 -20.0747 -90.5727 -19.5439 -120.597 70.6563 -168.344 -82.3047 34.8711 52.9891 -70.2404 283.519
7113 2 -23.6869 -90.651 -16.9132 -28.1793 -13.5013 -219.061 -58.4924 3.13597 -26.5386 -61.7015 227.726
27633 2 -22.5115 -90.2705 -19.9515 -65.2665 16.4496 -187.164 -83.2461 8.10373 24.7595 -67.1508 233.074
9894 2 -21.2741 -89.4476 -16.9432 -79.8173 45.8302 -160.091 -27.4364 46.7148 -16.6298 -67.9982 204.822
4983 1 -23.4822 -88.9552 -20.1741 94.7118 -71.0889 347.694 112.004 -24.1942 -41.4082 -397.183 421.864
26871 1 -20.3208 -88.1727 -16.794 208.229 -237.504 321.921 28.5774 -106.735 8.05494 -395.001 546.902
7685 2 -20.1559 -87.9879 -15.1896 -124.835 156.094 -186.531 -9.57101 38.173 -17.3548 -70.1052 324.976
29648 2 -23.0138 -87.6791 -19.2524 -42.8635 88.2983 -210.559 -49.9147 13.2064 40.0128 -68.6283 283.057
1640 2 -21.2048 -86.9222 -17.5303 -39.3029 104.454 -214.464 -37.2596 51.3457 28.1402 -67.6806 301.625
27177 2 -25.0098 -89.6032 -19.9829 -53.2255 4.10637 -181.554 -27.7314 0.374897 22.1178 -66.6382 175.749
2608 1 -22.086 -86.4256 -18.7816 61.3809 -260.427 457.308 101.086 -49.6994 -87.097 -398.913 669.742
24612 2 -20.8163 -86.2497 -19.8874 -79.8795 116.229 -173.681 -37.027 46.2017 28.3394 -70.0839 280.319
2035 2 -18.9461 -88.1789 -17.6068 -155.552 163.006 -163.983 -17.4889 54.3343 25.7467 -73.2675 340.587
27087 1 -16.6787 -92.0476 -18.5069 320.216 -279.794 323.433 299.557 -59.7076 -91.5693 -390.773 816.704
7410 2 -13.6485 -91.661 -15.4944 -157.797 153.987 -166.113 -47.2237 -48.87 80.501 -74.6989 364.921
29673 2 -17.8279 -91.6722 -19.5655 -145.019 102.247 -174.877 -154.797 75.5554 58.2126 -70.5827 410.601
1944 2 -15.7805 -90.7246 -18.1251 -145.188 204.156 -200.444 -112.53 30.7122 46.6829 -74.8002 437.898
29654 1 -18.6868 -90.6331 -20.4081 303.643 -238.719 326.992 212.765 -146.729 -108.242 -389.716 736.823
14780 2 -14.0331 -89.4622 -19.5568 -141.1 245.044 -236.598 -50.6685 34.6918 43.2732 -71.8023 460.471
4732 1 -15.0321 -89.2445 -18.3042 251.169 -513.982 516.737 140.706 -80.8871 -121.373 -387.542 991.161
2132 2 -18.1134 -89.1646 -20.0123 -191.258 171.057 -167.996 -87.4923 88.1124 58.433 -73.2757 424.128
12271 2 -14.1416 -88.4963 -17.1751 -167.278 265.822 -243.317 -80.2193 13.1509 73.436 -73.9755 512.145
9869 2 -16.2829 -88.2376 -18.5097 -133.742 248.845 -234.743 -61.3789 63.8838 67.8513 -73.4028 482.258
2524 1 -17.8963 -88.0598 -18.902 330.147 -396.828 382.991 88.2146 -157.156 -118.774 -387.083 842.297
4900 1 -13.5151 -86.9925 -16.9962 314.122 -497.98 467.151 226.643 -38.0459 -187.434 -387.997 1034.91
27167 2 -18.2429 -86.6623 -19.592 -206.281 168.106 -161.016 -1.84386 104.342 54.907 -73.6525 408.637
9899 2 -17.3023 -90.7906 -14.9451 -174.933 136.873 -153.541 -82.3363 -27.9913 0.127316 -78.9954 337.193
29566 2 -11.1691 -92.2796 -15.9116 -98.0655 157.807 -226.235 -53.0687 56.3486 77.6177 -70.0851 388.254
5069 2 -8.64041 -91.9454 -15.2657 -94.8283 176.017 -220.915 -37.4934 79.6268 28.5546 -65.8146 386.121
16822 2 -9.3337 -91.7897 -17.8669 -46.2438 175.478 -273.368 -2.80126 27.1907 23.3493 -70.9503 393.677
27068 2 -12.6369 -91.5284 -17.8235 -168.435 222.832 -266.885 -40.9571 20.349 87.9142 -77.6556 480.379
19117 1 -8.49494 -91.3805 -19.1754 79.1887 -361.982 599.642 -10.6063 -28.803 -10.1886 -390.617 835.613
7117 1 -12.3447 -91.1822 -16.2328 296.978 -397.667 436.525 65.602 -7.51465 -148.593 -387.4 823.566
19703 2 -9.44819 -91.0591 -20.4969 -48.4558 191.598 -288.324 6.09324 25.1221 -23.2217 -71.7381 419.96
14405 2 -7.63662 -89.9685 -19.0756 -80.2084 194.369 -283.982 4.70077 28.107 27.1044 -70.2493 421.318
179 2 -11.5431 -89.8115 -16.3259 -125.154 209.472 -238.723 -29.2274 26.5138 74.2815 -71.2027 429.069
29407 2 -11.516 -88.9916 -18.8417 -116.236 186.209 -255.028 -33.7905 -7.41376 24.8792 -71.0911 397.694
9795 1 -12.5769 -89.0599 -20.0977 300.191 -437.492 431.41 72.9673 7.17764 7.20956 -395.333 821.265
12099 1 -11.0479 -88.6297 -17.3311 173.434 -363.816 505.277 42.028 -39.0707 -147.777 -395.765 807.733
4281 2 -9.48333 -88.4056 -17.23 -54.1049 169.109 -255.97 13.7372 20.0511 72.6007 -66.7238 391.43
4622 1 -8.02121 -87.9175 -16.8099 127.581 -333.047 502.964 -8.99659 -50.9659 -116.045 -403.019 757.916
7379 2 -12.7147 -87.5974 -20.7206 -157.88 170.446 -183.109 -74.6245 -6.88946 -34.7002 -66.6748 370.377
11913 2 -8.39239 -87.5581 -15.265 -49.8677 168.118 -270.009 -14.1802 18.18 41.2676 -66.5045 388.164
2300 2 -11.9647 -87.3242 -17.1178 -88.3914 198.98 -248.252 -67.3052 19.8041 90.9478 -69.3309 440.066
2016 2 -7.54115 -86.6603 -17.7197 -95.096 169.21 -248.389 13.663 12.2954 40.2817 -65.5927 373.837
19902 2 -8.19711 -86.6673 -20.1063 -94.3367 131.507 -224.285 42.7183 24.8324 -7.22747 -63.693 323.607
12006 2 -11.7175 -89.81 34.6605 -154.886 221.769 -208.415 0.992489 33.7115 -6.29547 -68.7424 410.4
7053 2 -7.18448 -92.3783 -18.8744 -78.7174 185.067 -281.897 5.10915 36.7766 -3.88674 -72.4235 410.659
16617 2 -5.51992 -92.3219 -16.6823 -128.772 190.293 -218.145 28.6106 60.8581 30.2516 -68.6008 393.215
19501 1 -5.63098 -92.2785 -18.2893 229.503 -397.382 476.452 5.74771 -145.95 -19.6757 -392.589 820.939
14431 2 -2.98117 -91.9757 -16.0265 -65.3081 183.074 -267.381 37.9689 61.624 59.2217 -70.0066 423.033
7024 1 -1.53018 -91.4727 -15.3179 104.218 -419.609 551.608 4.88305 -95.6996 -40.3902 -386.853 861.015
12309 2 -5.26655 -90.7951 -18.8718 -112.592 206.949 -269 22.8186 74.0083 14.8241 -71.1678 441.816
11852 2 -1.52827 -89.9576 -16.1419 -90.2417 262.942 -275.788 7.61915 56.7899 21.7761 -76.4984 485.767
6915 1 -6.16304 -89.8626 -19.7449 239.43 -428.205 555.137 -64.1906 -79.6659 -2.27927 -392.154 887.469
12216 2 -2.83471 -89.1628 -20.6925 -76.3213 216.915 -286.937 20.5527 65.3446 -31.4157 -69.3388 457.323
20025 2 -6.68553 -88.8424 -16.6076 -70.5997 185.575 -236.607 0.559066 60.1865 43.3208 -66.7128 390.14
17276 2 -3.89945 -88.7313 -16.577 -68.418 202.223 -256.906 43.7065 72.5331 9.50548 -71.4818 426.113
12316 1 -5.28198 -88.663 -15.7753 142.834 -388.219 525.451 -27.6805 -106.053 -32.3803 -396.333 819.017
9616 1 -2.30717 -88.6522 -16.4707 162.675 -452.406 531.09 -55.7009 -126.819 -16.7587 -382.295 893.901
1833 2 -5.33268 -88.4859 -20.0792 -128.503 221.889 -251.091 46.3508 44.0235 -14.1995 -69.5285 440.024
17202 2 -1.55777 -87.7287 -17.5595 -132.847 191.509 -182.096 -1.71905 61.0728 0.660579 -77.1384 367.16
17465 2 -3.60201 -86.6148 -20.1742 -116.636 174.65 -184.216 25.5756 76.8046 -23.2679 -69.6247 361.086
12363 1 -1.7496 -90.3397 -20.7873 97.2677 -443.611 600.028 -67.6953 -93.5229 58.7259 -394.175 931.442
7204 1 -3.96947 -88.0565 34.9963 245.11 -414.943 486.935 -71.4075 -139.012 86.7964 -396.071 865.816
14603 2 -5.32388 -87.1823 -15.2833 -97.0919 176.34 -280.755 -0.93382 38.2488 20.0407 -70.2167 405.355
11837 2 -2.07146 -87.7957 -15.0542 -75.3823 195.036 -300.901 3.1924 38.0393 -2.69054 -80.8081 435.157
11914 2 4.79227 -92.4295 -16.5994 -188.825 172.398 -164.516 10.0292 -110.911 -59.1835 -83.2869 412.317
11919 1 3.06473 -92.1997 -20.5746 163.853 -132.641 367.987 -90.7674 68.1919 238.064 -384.785 631.501
14872 1 -0.670925 -86.369 -17.6707 308.528 -343.897 300.955 21.7792 -25.5011 86.5321 -374.838 668.291
6924 2 0.149053 -91.4722 -15.5985 -133.259 258.855 -256.617 -48.201 60.4207 15.1594 -80.5856 485.75
7327 2 2.68721 -91.4596 -15.6991 -249.113 281.475 -203.728 -49.3232 0.628561 -1.37769 -86.5946 516.534
9243 1 0.625791 -91.1735 -18.9472 291.803 -393.941 330.939 -28.5368 -72.2409 68.6325 -383.184 728.591
19397 2 1.83027 -91.2363 -20.1024 -105.033 135.235 -186.838 29.0024 -22.9259 -84.5855 -76.0211 331.12
7423 2 -0.800828 -90.6426 -19.4658 -109.55 218.432 -224.164 23.3752 60.8821 -9.666 -72.6453 413.931
14679 1 1.39995 -90.607 -16.1303 408.991 -614.122 413.876 134.977 -81.0384 -14.1051 -368.113 1061.48
9428 2 1.22398 -90.416 -17.7455 -188.392 254.109 -139.968 -31.9651 17.1739 -11.1218 -78.2548 425.495
11934 2 1.59985 -89.0775 -15.7081 -204.409 291.95 -221.475 -59.9149 23.9107 -12.8935 -85.3545 517.801
12002 1 1.39109 -87.4948 -15.6007 349.094 -432.442 433.474 82.7002 -7.61296 82.6501 -361.144 851.499
2118 2 3.96561 -87.0446 -17.3711 -142.909 188.108 -129.684 -4.04443 -78.1651 -43.7437 -77.8883 359.845
7400 2 3.63392 -87.1932 -20.1032 -119.535 166.841 -142.524 -42.4916 -78.6018 0.865582 -77.2643 336.269
21706 2 0.68562 -86.8218 -16.8545 -167.509 198.301 -165.594 -21.8305 -12.669 -53.4453 -83.6675 378.947
24400 1 4.22181 -86.769 -15.803 256.789 -450.056 373.786 -42.9503 96.8096 110.355 -376.689 816.212
17084 2 2.76817 -86.6979 -15.1796 -143.092 238.282 -202.245 6.75532 -31.6601 -48.0113 -83.4397 426.103
9410 1 4.44885 -86.5267 -18.8593 277.985 -338.325 240.007 73.7792 142.267 -16.9031 -380.425 660.137
19524 2 1.32063 -86.3208 -20.7158 -143.521 165.177 -162.096 -32.8206 -24.2213 -21.4992 -76.3897 328.255
12010 2 8.09031 -91.8735 -18.2031 -182.175 212.101 -178.189 42.4521 -63.0789 -55.4814 -74.7971 424.824
12503 2 7.04668 -91.4404 -20.8105 -195.432 144.086 -122.711 1.20776 -105.366 -147.951 -80.5138 441.417
14592 2 5.71551 -91.207 -18.5058 -176.867 195.45 -141.984 39.8631 -102.24 -104.479 -79.0214 442.406
16983 1 7.13474 -90.9646 -19.2361 391.181 -398.742 278.517 -80.1853 139.877 189.53 -377.307 856.403
24493 1 8.35485 -89.326 -15.1346 259.926 -307.569 328.099 -85.0799 66.5105 101.657 -386.556 656.791
17013 2 10.2832 -89.4875 -18.5116 -156.883 142.819 -119.433 26.0055 -23.2254 -3.42178 -74.5247 289.279
11997 2 7.33555 -89.4034 -19.3353 -200.898 186.387 -108.016 28.7211 -40.8274 -37.8514 -78.7833 366.632
26897 2 8.5961 -88.5871 -16.5997 -158.888 154.692 -148.133 30.2733 -33.8751 -42.4432 -75.0239 326.607
21901 1 9.59992 -88.2183 -17.7819 307.475 -294.209 258.367 -59.4337 39.1608 5.88035 -382.688 591.768
11810 1 7.30572 -87.7712 -19.6007 337.479 -331.986 172.585 6.97829 75.4743 -15.5819 -378.471 618.826
19306 2 8.69982 -87.3842 -18.9059 -148.616 164.199 -122.513 21.6579 -9.58071 2.2944 -76.6164 303.426
22195 2 10.8544 -87.3611 -17.0917 -154.97 157.038 -133.792 22.4079 -8.94884 -10.2162 -76.31 305.368
17096 2 5.99755 -86.944 -18.9747 -160.479 177.048 -114.307 -35.3121 -70.2842 23.4404 -76.672 347.392
24513 2 9.36855 -90.5714 -15.0082 -142.744 141.815 -174.968 46.586 -3.38824 -42.5514 -72.3851 321.184
14501 2 5.03899 -87.9442 -15.0197 -138.221 229.034 -215.594 20.5368 -58.7571 -57.714 -77.8634 436.913
5118 2 6.84968 -89.7366 -14.8668 -104.591 173.316 -173.151 37.9701 -55.6882 -50.6352 -75.2366 349.723
1824 2 16.3606 -92.2435 -15.5795 -237.629 163.439 -186.933 -24.8314 -9.61782 -47.0874 -75.5324 389.708
19425 2 14.0327 -92.0652 -16.3347 -187.303 196.077 -191.486 -50.2584 -6.98218 -38.7717 -69.003 401.042
17109 2 11.5668 -91.1639 -20.3355 -180.44 224.419 -153.574 -33.0127 -16.2444 -3.65919 -72.472 397.312
17489 2 12.4833 -90.5897 -17.913 -143.318 135.342 -126.857 -29.0095 20.3259 -4.74352 -68.8965 277.79
12183 1 13.5762 -90.5546 -16.7743 280.003 -346.463 327.681 131.721 -11.6889 69.9031 -393.576 701.229
17187 1 11.6224 -90.0491 -19.1745 326.456 -330.906 235.298 17.1705 18.7677 -8.8739 -390.15 618.618
24606 2 13.2482 -89.6648 -15.4703 -143.6 180.988 -177.905 -47.6359 -26.6308 -32.3053 -73.3278 360.188
19403 2 14.9212 -89.7717 -17.2998 -162.077 186.217 -167.305 -50.7695 -0.602826 -42.3306 -73.03 369.143
14896 1 16.4576 -89.3537 -17.4045 370.003 -401.484 316.27 33.6383 40.3017 103.836 -387.314 772.811
17039 2 12.3979 -88.7588 -19.6893 -168.125 150.117 -110.757 11.8098 -5.62021 -6.54895 -75.2546 294.879
27349 1 12.9209 -87.5678 -20.5891 300.068 -259.962 203.149 -37.7468 7.24377 -25.8671 -379.697 524.584
19387 2 14.0603 -87.2011 -15.2503 -157.374 179.043 -171.82 -22.8676 -24.4629 -21.8546 -75.5562 350.773
12324 2 13.7868 -86.4499 -19.7971 -144.65 133.818 -117.629 -7.50533 -20.0007 22.5219 -77.1429 271.368
24764 2 16.7912 -86.3095 -20.5008 -131.988 125.848 -163.669 9.68082 -19.3427 -14.01 -76.5944 278.647
12223 2 16.8167 -88.2607 -18.4933 -165.535 161.879 -114.39 -11.31 -19.7444 -52.2927 -73.213 320.666
7115 2 17.0583 -88.7356 -15.9646 -165.389 210.855 -189.058 -0.0876853 -6.85653 -21.1957 -74.2064 390.53
14416 1 17.3174 -92.2521 -16.8308 496.087 -423.409 302.547 -26.4471 17.479 48.7467 -384.977 845.645
21988 1 19.0851 -91.9557 -20.7066 398.044 -404.988 305.759 -211.893 52.2195 50.1562 -391.356 854.22
24378 2 17.1806 -90.7705 -17.4967 -218.194 203.813 -155.853 -1.00839 -24.9935 -31.6913 -74.1507 400.697
22012 1 19.6482 -91.8253 -15.1756 268.232 -376.861 356.318 -85.1613 -30.9387 124.928 -387.809 743.086
17179 2 19.8191 -91.3154 -19.4546 -152.85 158.619 -147.726 99.3895 -12.7272 -41.4888 -72.0677 361.563
2030 1 21.1925 -91.5161 -18.7458 255.244 -246.927 294.765 -260.707 12.7809 141.443 -391.548 733.482
22361 2 21.2881 -91.7492 -15.403 -145.174 159.236 -163.494 53.962 -8.15816 -76.1832 -72.5656 353.447
14433 2 22.283 -91.2778 -19.9757 -97.7009 54.6447 -143.783 148.69 -6.17973 -57.0528 -73.4143 329.483
17100 2 21.48 -90.1432 -17.939 -114.547 102.058 -151.801 74.3087 -46.6152 -43.9387 -74.0763 291.978
19588 1 22.2149 -88.7028 -18.2854 204.576 -199.17 298.345 -8.51944 105.815 50.394 -383.994 501.088
16817 2 18.2637 -88.465 -20.5724 -146.825 158.576 -140.195 -12.9112 -14.4685 -36.5642 -73.9351 310.528
19500 2 21.1709 -87.5215 -18.2594 -127.114 146.361 -150.038 -26.9513 -42.4546 -19.1291 -72.3446 300.445
15064 1 17.6693 -87.2861 -19.5193 275.3 -292.871 239.535 -13.6954 14.5221 70.3043 -386.48 565.509
19761 2 18.8527 -86.5432 -18.8346 -143.308 147.993 -125.273 7.97205 -5.44662 -22.276 -73.0833 285.826
27097 1 20.1967 -86.3034 -17.9953 285.806 -304.53 280.797 14.0436 48.2881 40.7384 -392.076 598.439
22299 1 19.8281 -86.4339 -14.8 302.587 -264.186 295.326 9.45046 -36.3039 -33.0833 -392.204 569.802
16969 1 22.7706 -91.7592 -14.8795 370.908 -390.613 299.526 -59.5053 61.5283 199.369 -389.293 819.679
29601 2 22.9939 -88.9829 -19.6748 -83.5824 56.268 -150.892 15.3033 -33.5644 -41.2343 -79.3482 206.604
24501 2 19.828 -86.2962 -16.4347 -163.694 137.567 -130.637 -9.69202 -19.2924 -14.4145 -71.1889 289.679
17213 2 19.0129 -90.3737 -14.9627 -169.994 210.031 -186.389 17.2954 16.1337 -38.8203 -73.5683 396.381
19532 2 23.2778 -88.4715 -17.0942 -138.025 91.9792 -120.123 15.575 -66.6114 0.936733 -74.5038 251.29
24675 1 28.1573 -91.6947 -15.2225 362.731 -383.387 384.815 -252.706 3.6509 161.68 -400.53 918.531
2223 1 28.8277 -91.5868 -20.2747 257.031 -76.1308 429.835 -29.7379 158.613 70.762 -387.31 539.98
14510 1 26.1379 -91.0795 -19.4605 347.787 -87.9645 360.173 -28.6034 100.188 161.049 -370.116 553
2032 1 23.3459 -90.2675 -20.5683 122.637 -39.8034 256.936 -153.655 8.309 55.3523 -375.618 382.711
10 2 24.7968 -90.831 -20.2612 -89.6358 2.57687 -167.628 45.8892 -20.7521 -33.0081 -81.8349 180.709
27371 2 27.4172 -90.7318 -20.5235 -161.377 -11.8622 -203.358 4.61842 -54.714 -26.4028 -84.518 203.789
22367 2 23.5642 -90.5606 -15.6393 -175.058 159.083 -120.263 51.8764 -65.6512 -96.1301 -72.6563 380.881
27299 2 28.5844 -90.2283 -15.6195 -142.731 125.881 -183.73 113.084 29.5834 -39.2843 -69.2579 361.201
14598 2 26.3569 -90.0325 -18.3015 -161.393 53.2246 -153.648 41.1658 -34.7818 -55.221 -82.139 249.639
29761 1 23.9807 -89.0357 -15.7619 312.129 -229.601 209.464 -92.763 142.97 5.97596 -390.525 579.343
27079 2 25.5596 -88.728 -16.1307 -121.633 89.9534 -97.9089 64.1515 -49.2843 14.1279 -72.0087 246.056
20152 1 26.3669 -88.6067 -17.4694 262.019 -180.791 253.885 -167.193 35.9006 -23.4323 -380.244 530.961
24611 2 27.958 -88.3455 -17.1729 -113.531 103.479 -143.394 117.745 23.9247 2.9629 -74.6084 312.731
24972 2 25.7131 -87.6017 -18.478 -126.613 136.588 -164.323 59.6124 -24.5849 18.9883 -78.0731 306.884
29667 1 25.5769 -87.1907 -20.0202 224.458 -317.273 380.752 -58.4238 3.51044 34.9998 -375.328 645.385
22267 2 24.2515 -86.5304 -20.5316 -108.072 168.116 -182.019 -21.1862 0.741943 -26.4029 -76.1291 324.979
5162 1 28.781 -88.663 -15.8422 237.359 -207.196 253.106 -185.412 -41.6211 35.1847 -393.755 562.958
9669 2 29.1612 -86.7243 -19.6779 -76.2698 106.826 -182.436 108.664 14.7923 30.2592 -77.6119 321.031
7492 1 34.9021 -90.533 -16.7612 80.7529 -13.9397 470.69 81.2909 42.9777 56.7647 -412.354 482.674
27562 2 33.8817 -91.7506 -20.7872 -68.7641 23.7493 -234.415 -6.22229 3.27625 12.5689 -56.7511 227.917
4740 2 34.4174 -91.4891 -15.4847 -42.2686 34.9912 -307.329 -8.25954 -22.2913 -38.7591 -56.5032 320.791
29289 2 34.2529 -91.0046 -18.1219 -73.9105 16.4525 -216.302 -10.2876 -11.7909 -0.938885 -58.75 205.049
9928 1 33.9082 -90.6447 -19.6218 68.7484 -2.48371 396.514 16.8796 -15.0485 -51.1956 -410.853 381.115
2515 2 30.0203 -90.5316 -20.0997 -40.6283 34.5591 -218.8 59.9329 -54.4347 14.4234 -72.4838 266.615
4823 2 32.5176 -89.9732 -19.5847 -24.4027 17.4521 -190.985 14.6921 1.63062 42.8176 -66.3656 206.468
9724 1 31.095 -89.3846 -19.844 24.5711 -112.897 386.157 -112.605 19.9123 -101.472 -391.922 519.102
27012 2 34.6342 -88.8853 -16.6677 -52.0753 66.411 -236.392 -48.8969 -23.8348 -9.46416 -66.2045 281.063
128 2 30.3927 -88.5812 -15.7734 -93.5462 71.445 -158.495 79.1971 -3.29997 -39.3321 -69.8302 256.216
1781 2 30.5466 -88.5449 -18.6453 -47.1162 76.6384 -176.312 77.0959 12.0896 32.6465 -73.241 263.558
29769 2 32.7728 -87.6827 -15.6701 -97.2392 113.629 -204.776 49.535 -16.5948 -1.6042 -69.1529 294.789
2044 1 34.1257 -87.3497 -16.4847 191.609 -281.101 454.218 15.5703 4.825 -41.1679 -396.622 649.951
22276 1 30.1991 -87.0182 -18.4337 141.931 -213.337 397.797 -199.935 -35.5261 -61.1535 -383.145 646.151
29852 2 33.9373 -86.5133 -17.8648 -100.554 138.003 -214.605 -6.84599 3.7721 42.2818 -72.2956 320.424
366 2 34.9971 -86.2982 -15.5526 -118.937 147.44 -204.923 -13.6523 24.799 44.6161 -67.764 331.105
4921 1 31.7793 -88.7378 -14.9659 162.309 -166.268 423.824 -117.662 81.2623 49.1579 -398.89 575.217
7419 1 -19.3288 -85.8285 -20.4236 313.025 -272.705 231.899 25.4487 -164.393 -61.8935 -391.931 629.805
4955 2 -22.8792 -84.958 -18.6044 -32.1526 133.035 -254.339 -62.4581 -5.81435 80.5956 -68.2605 380.326
29750 1 -23.5514 -83.4568 -18.5727 98.0404 -186.336 371.041 21.0566 35.815 -154.26 -391.122 556.418
2100 2 -23.363 -82.6379 -19.9792 -68.9024 81.2915 -139.034 6.16149 -38.649 57.5758 -71.242 229.238
14962 2 -22.7138 -82.4824 -17.5243 -4.42141 72.2118 -216.844 8.78865 4.68724 80.6024 -71.8202 295.064
4803 1 -24.5671 -81.9652 -15.0488 187.766 -193.196 292.495 -88.4149 -18.0075 -87.213 -383.13 493.194
2586 2 -20.524 -81.7692 -16.5764 55.6627 63.4135 -212.875 -48.1136 51.9124 58.7956 -73.2506 315.681