ITEM: TIMESTEP
1180000
ITEM: NUMBER OF ATOMS
29952
ITEM: BOX BOUNDS pp pp pp
-2.5093087473165852e+01 3.5078381815859899e+01
-9.8706034144548909e+01 1.0869132848654891e+02
-2.0985542515027589e+01 3.4853395661184415e+01
ITEM: ATOMS id type x y z v_StrAtomXX v_StrAtomYY v_StrAtomZZ v_StrAtomXY v_StrAtomXZ v_StrAtomYZ c_PEAtom v_VMS
4527 1 -13.3441 -93.2506 -17.1622 595.129 -666.163 670.205 153.587 98.0714 -95.5934 -391.041 1348.41
4519 2 -13.6513 -94.7793 -17.7358 -358.994 419.71 -397.783 2.66325 -37.9644 -21.0848 -63.1544 802.351
9517 1 -8.27856 -93.418 -16.0209 368.966 -488.394 619.898 15.8555 -264.439 -89.4773 -403.064 1117.02
17086 2 -9.83079 -93.7061 -19.1724 -131.865 240.297 -399.006 6.79282 74.68 -5.147 -76.8135 571.173
7017 2 -11.8701 -93.8006 -17.2742 -276.158 328.632 -361.218 -41.8168 22.1074 20.7703 -72.2175 657.614
9608 2 -8.85059 -94.479 -17.0126 -176.619 287.911 -375.68 8.29568 134.535 -5.08623 -63.2554 634.403
14621 2 -12.3651 -94.8618 -19.9415 -370.249 342.276 -385.645 7.55603 95.8911 -29.1683 -74.3876 741.086
4816 1 -12.159 -95.1022 -18.2455 741.468 -782.653 837.561 -15.5407 -61.1954 95.9176 -397.257 1586.88
7300 1 -9.39023 -95.0691 -18.3931 348.755 -612.061 902.014 -2.39611 -195.588 108.374 -404.453 1382.34
12319 2 -8.19959 -95.5752 -19.2905 -146.268 316.679 -481.328 -12.6723 35.558 -64.7162 -58.3788 706.073
24571 2 -10.7932 -95.8758 -18.2097 -326.57 428.491 -482.904 16.3818 85.6356 -90.448 -61.3953 871.75
12367 2 -6.85577 -93.5653 -20.4342 -48.2308 202.715 -367.038 -39.3851 -2.0058 -17.7422 -71.7175 500.225
19496 2 -6.64795 -93.3574 -16.1066 -188.89 220.794 -325.597 -18.3975 58.7716 38.2148 -66.8409 508.228
14115 1 -6.70798 -95.0537 -19.772 193.829 -482.889 823.19 74.1671 5.94139 90.8299 -410.623 1149.48
9630 2 -3.56393 -93.6083 -18.1993 -173.98 232.297 -324.263 21.6856 29.768 28.7729 -68.426 505.229
14307 1 -5.21301 -93.6498 -15.3391 429.056 -479.884 660.922 48.7716 -71.302 -57.8232 -411.36 1059.77
17074 2 -1.45414 -94.7478 -20.2412 -272.341 324.188 -393.469 20.1327 121.157 7.96854 -64.9198 698.727
16917 2 -4.51616 -94.8618 -16.2401 -258.77 307.543 -375.951 -38.9069 28.141 -12.2239 -55.6504 638.881
14618 1 -4.27352 -94.9835 -17.8389 478.185 -591.862 727.267 26.6354 -31.9479 34.1363 -415.048 1217.48
9885 2 -5.70853 -95.1058 -18.5031 -167.279 271.862 -379.458 -23.9368 19.3166 -27.6777 -60.1768 579.809
7095 1 -2.88167 -95.5152 -20.3269 655.828 -700.647 783.555 40.1419 -121.765 35.139 -406.822 1443.13
12177 2 -3.38895 -95.9313 -18.9364 -330.902 390.91 -407.155 -25.4802 46.1436 -55.0194 -55.9584 774.135
20158 2 -6.13799 -96.1013 34.9618 -183.859 343.879 -487.607 -31.2554 -19.9042 -47.2561 -53.4386 736.131
12185 2 -3.98142 -94.3674 34.9259 -214.557 233.803 -372.289 -12.436 41.414 0.372868 -74.2446 549.761
11918 1 -0.817248 -93.2906 -20.3766 373.233 -507.941 689.134 -227.764 -242.858 -32.0706 -394.124 1220.77
12198 2 0.827614 -92.6263 -16.4867 -160.227 211.582 -306.263 45.5588 165.055 -18.2949 -74.8832 550.297
12111 1 1.78953 -92.8313 -15.27 456.826 -457.683 640.724 -37.5 -146.476 38.0522 -375.301 1054.16
4424 2 0.223463 -93.111 -19.0734 -144.886 248.888 -315.377 96.6888 172.258 -1.08491 -67.4829 606.901
17006 1 4.33078 -93.5328 -15.5649 631.58 -602.232 639.907 90.0118 65.6491 58.009 -376.681 1256.97
24524 2 2.87533 -94.1032 -15.2063 -329.415 374.344 -376.98 11.4991 28.6601 -21.3576 -72.154 731.603
19508 2 5.34822 -93.6642 -16.8218 -267.054 305.904 -350.9 -40.4651 -121.536 -29.7999 -74.2235 659.728
16815 1 6.56248 -93.1021 -17.8136 433.172 -538.815 684.163 85.0206 317.526 125.08 -385.765 1273.89
17104 1 9.07982 -93.7294 -19.4042 482.613 -612.943 723.551 166.133 301.727 165.203 -400.147 1400.02
19786 2 7.59498 -93.94 -18.6743 -250.175 329.879 -396.482 -50.8108 -161.416 -45.429 -66.4311 731.325
9800 2 10.1963 -94.8392 -19.0881 -258.343 327.519 -428.597 -71.5113 -95.467 -73.2564 -60.9922 728.525
19292 2 9.2494 -93.4051 -20.9164 -274.508 276.93 -303.197 -70.8151 -141.523 -119.063 -66.9026 662.107
19580 2 12.3683 -93.8376 -18.1162 -216.128 236.243 -266.255 -41.0105 -24.1867 -26.7236 -65.5678 488.643
24569 2 14.4679 -94.4554 -19.0837 -320.362 241.707 -242.062 16.3389 -63.9494 -47.426 -68.1998 545.765
17050 2 14.3 -94.558 -16.2104 -353.604 267.449 -243.915 31.8833 10.8949 27.5684 -62.9965 579.053
19683 1 14.0662 -94.6198 -20.7272 590.694 -554.512 666.725 59.1076 244.43 183.114 -397.191 1301.79
12302 1 13.723 -94.7426 -17.6507 677.916 -499.501 493.64 -41.9533 12.4356 25.0211 -407.305 1100.42
12364 1 11.7602 -95.076 -19.025 509.215 -598.328 813.984 57.8465 129.838 158.94 -411.185 1339.21
17205 2 12.574 -95.2311 -20.4261 -294.813 336.881 -409.949 -22.8 -100.591 -91.8679 -61.5297 736.382
22085 2 12.6642 -95.997 -17.9861 -356.019 381.983 -401.283 15.5406 -38.9843 -54.9686 -55.2807 771.006
24409 1 21.4763 -92.7879 -17.883 392.918 -367.224 508.219 -229.075 -166.146 162.034 -421.157 998.879
24657 2 20.0293 -93.2044 -17.3068 -234.887 191.248 -239.044 95.6404 46.6135 -68.6717 -59.6741 481.131
29301 2 17.6775 -93.5237 -18.7777 -314.436 220.867 -173.299 82.9448 15.8363 -8.90893 -65.6825 502.541
17190 2 21.4875 -93.7366 -19.1766 -263.604 212.839 -265.129 91.8675 59.3336 -34.1143 -47.685 516.816
12110 1 18.8136 -94.2635 -17.8239 651.786 -505.18 432.51 -132.586 -47.8698 66.6299 -419.989 1098.13
22104 2 18.103 -94.8276 -16.5283 -348.675 274.466 -261.435 13.1332 20.215 -40.5362 -56.0325 590.106
22071 1 21.0141 -95.2885 -19.6308 716.182 -708.989 633.226 -31.5216 -76.335 -6.4553 -462.067 1392.97
19859 2 19.6734 -95.2999 -18.711 -406.935 345.559 -287.081 45.5344 52.8997 -24.8907 -45.4535 711.966
26904 2 22.0884 -96.2996 -19.3084 -346.117 471.383 -378.027 -52.553 38.3501 14.7377 -20.1074 841.879
1928 2 22.7317 -93.0385 -16.9303 -165.132 187.177 -297.773 64.7142 83.023 -118.414 -55.7138 513.569
27157 1 17.9326 -94.695 -14.972 586.061 -560.271 640.26 12.5039 -90.2875 74.7309 -418.202 1191.98
19688 2 27.6637 -92.884 -17.675 -390.581 316.845 -309.614 30.9194 -101.847 -159.813 -52.4405 748.556
27246 2 27.7556 -93.2329 -15.1293 -322.177 300.617 -368.151 49.8883 -47.3986 -76.4353 -57.7146 671.083
29389 1 26.8405 -93.537 -16.4838 758.778 -632.447 729.918 -48.9898 198.613 234.483 -423.897 1478.74
27095 2 26.2999 -95.0233 -16.0417 -423.994 416.758 -469.509 -30.9685 -92.5819 -31.6755 -46.6537 882.498
29 2 24.5609 -93.688 -14.9598 -280.24 251.177 -384.329 37.4266 -47.2875 -104.572 -63.3165 626.314
9799 2 -21.7745 -89.8228 -18.0729 -109.802 75.6145 -218.716 -77.478 3.89673 1.51876 -59.5023 290.684
4993 1 -21.4735 -89.3839 -19.6358 184.685 -100.645 425.425 172.985 -8.01509 -52.5616 -404.696 553.454
7205 2 -22.082 -88.9713 -15.2495 -25.4616 -1.58973 -216.759 -70.5602 35.9837 -35.5849 -65.0057 253.674
29762 1 -22.1768 -88.7545 -16.8631 93.4626 -3.89551 367.366 133.392 -15.0955 51.5898 -405.888 416.193
7113 2 -23.7908 -88.6696 -17.0373 -23.783 -29.5901 -208.268 -71.1253 -14.0219 -15.5143 -63.502 222.453
9473 2 -20.1335 -88.5744 -19.5839 -101.203 64.8619 -201.183 -85.8077 43.2333 51.2489 -71.0743 299.587
27633 2 -22.6157 -88.2566 -19.9446 -33.4953 -22.4658 -191.33 -81.5989 27.4299 33.0532 -68.3564 228.658
9894 2 -21.2816 -87.4504 -17.1034 -58.115 48.9238 -179.979 -30.3775 29.0407 -17.5121 -69.288 213.473
4983 1 -23.4868 -86.9625 -20.2594 61.6591 -29.3252 321.05 61.4449 -69.1285 -59.9301 -393.955 368.239
2327 2 -21.0059 -90.3168 -20.9277 -153.901 95.2173 -242.426 -92.364 21.8683 18.4976 -62.4181 346.416
27177 2 -24.9912 -87.4496 -19.9318 -34.8309 -33.7802 -143.951 -16.3583 4.3387 37.9687 -69.5775 131.176
4248 2 -13.928 -92.4548 -15.9816 -264.578 283.05 -303.061 -95.6381 -68.3175 66.362 -69.8724 614.089
29654 1 -18.7013 -88.6073 -20.2678 276.556 -211.052 324.107 200.062 -167.685 -114.017 -390.04 711.785
12116 2 -13.3308 -92.1697 -18.3615 -248.57 275.801 -287.135 -111.013 6.16981 76.6892 -79.6286 592.794
6926 1 -14.0677 -91.2353 -14.8656 376.633 -374.551 453.334 201.21 120.42 -172.472 -390.534 939.136
2196 2 -15.896 -91.2104 -19.5077 -166.497 188.377 -202.349 -161.393 57.4967 66.6715 -70.6992 491.264
4495 2 -13.5502 -90.7452 -20.3695 -201.906 211.585 -172.557 -82.6736 93.3404 54.4631 -77.1959 463.942
7411 2 -17.0743 -90.6366 -16.9356 -173.353 137.722 -192.813 -116.083 -15.7856 32.1582 -70.3851 384.026
9700 1 -17.042 -90.4458 -15.3322 344.211 -249.444 407.003 207.637 146.026 -99.5651 -385.756 785.3
27087 1 -16.5808 -90.1963 -18.4293 292.62 -321.314 417.762 286.161 -100.783 -80.0474 -389.843 874.507
7410 2 -13.242 -89.9334 -15.4918 -131.329 177.797 -218.938 -62.5514 -35.3446 65.8859 -76.2785 398.529
29673 2 -17.7551 -89.5655 -19.3454 -131.316 112.463 -200.532 -139.084 92.718 48.7394 -71.2275 414.779
1944 2 -15.4956 -89.0329 -18.1237 -136.004 225.157 -253.26 -109.425 34.1503 31.7121 -77.4188 478.51
14780 2 -14.0456 -87.3079 -19.4391 -131.49 235.12 -247.346 -74.0324 17.9596 20.2573 -75.8726 457.1
4732 1 -15.0531 -87.4049 -18.1721 235.996 -510.688 585.563 151.755 -59.4117 -63.173 -378.382 1016.07
2132 2 -18.1624 -87.1219 -19.9574 -150.921 171.206 -172.524 -63.1669 96.2596 49.8239 -73.6903 398.003
12271 2 -14.2068 -86.7493 -16.9605 -145.687 263.757 -249.956 -93.7821 4.92502 48.0384 -78.7168 504.569
29775 1 -14.9807 -91.2361 -20.8851 408.655 -408.118 285.329 325.237 -187.777 -127.66 -386.533 1026.45
4899 1 -10.1761 -92.3613 -20.0429 218.568 -512.597 694.908 -42.4496 -102.615 -17.703 -375.398 1071.32
9438 2 -8.76464 -92.0233 -16.5389 -148.196 223.529 -273.484 -33.868 136.765 48.1257 -72.2534 516.675
12202 2 -8.76992 -91.7614 -20.5967 -66.5818 248.946 -330.754 25.1039 16.94 -9.28773 -76.1508 505.677
9798 2 -11.1615 -91.334 -19.39 -148.869 295.355 -308.492 -7.79972 41.5694 57.2557 -80.8874 555.81
27068 2 -12.5244 -89.7431 -17.8911 -166.151 254.594 -315.233 -84.2302 26.5809 71.9484 -80.6155 548.554
7201 1 -12.6547 -90.8921 -18.9955 373.208 -579.22 546.732 145.952 -74.5255 -154.941 -373.252 1120.31
9506 1 -9.31795 -90.523 -16.423 178.817 -395.415 512.097 95.9457 -199.685 -81.8121 -386.052 894.157
29566 2 -10.8794 -90.5197 -16.1466 -92.8594 198.64 -275.737 -45.8698 75.9041 64.8552 -75.0729 456.005
5069 2 -8.56894 -89.8098 -15.1549 -125.815 179.923 -223.062 -62.9965 92.7897 35.2774 -72.2687 417.294
16822 2 -9.10572 -89.7131 -17.7957 -73.2193 209.881 -280.603 -18.326 44.2617 22.6495 -76.5144 436.221
7117 1 -12.0672 -89.4645 -16.4001 234.711 -452.964 533.754 99.7158 -26.5543 -117.729 -379.498 917.33
19117 1 -8.3183 -89.2705 -19.1335 141.187 -411.961 589.085 4.62905 -48.1972 -6.33302 -382.879 872.636
19703 2 -9.27104 -89.0186 -20.4567 -92.0719 221.52 -278.242 -19.0779 35.4402 -12.9751 -74.9335 443.56
179 2 -11.3598 -87.9772 -16.297 -103.817 214.443 -242.689 -61.8237 41.8984 63.2701 -75.6112 439.903
29407 2 -11.5784 -87.0528 -18.7213 -112.413 182.75 -273.925 -81.9685 1.00357 0.0379726 -77.1869 425.487
9795 1 -12.5267 -86.9374 -19.9812 300.998 -385.833 427.47 162.974 14.8305 37.6549 -384.804 811.907
12099 1 -10.941 -86.8014 -17.2983 149.462 -363.849 522.824 112.458 -76.2476 -107.446 -385.755 827.377
4281 2 -9.33309 -86.5136 -17.2622 -54.5888 177.066 -255.629 -1.74188 47.8713 64.0729 -70.854 399.816
14405 2 -7.39894 -87.8372 -19.0549 -77.8749 200.347 -285.137 16.5759 32.4104 5.37623 -73.3172 426.722
7053 2 -6.95117 -90.2838 -18.9057 -82.5066 194.48 -298.628 2.35724 45.5297 -14.2724 -74.9006 436.049
16881 2 -4.3048 -92.3478 -15.5239 -142.093 199.247 -316.22 22.9705 38.3879 38.8297 -65.9626 465.614
14684 2 -1.99352 -92.2734 -19.8493 -149.25 228.918 -316.237 90.8109 98.328 27.3151 -75.0556 538.542
9712 1 -2.84469 -92.1523 -18.4806 199.859 -426.461 599.736 -79.6519 -99.6105 -87.0727 -391.038 934.973
17093 2 -1.52453 -91.916 -17.5566 -68.9486 183.801 -293.183 72.0337 108.624 41.606 -71.0479 476.441
17135 2 -4.17928 -91.2525 -18.5885 -76.1645 226.821 -274.389 -22.1269 37.2321 26.7386 -71.709 446.01
17008 1 -4.31003 -90.7503 -15.453 193.427 -380.366 544.501 -78.1562 -78.5109 -101.424 -395.488 849.478
16617 2 -5.39518 -90.2511 -16.5827 -139.406 198.294 -245.11 -1.9828 54.8246 19.8791 -71.8082 413.673
19501 1 -5.43309 -90.2346 -18.2558 176.735 -421.785 511.692 30.5631 -116.574 -4.69742 -390.194 845.304
14431 2 -2.94959 -90.0344 -15.8851 -30.1448 195.211 -280.213 26.6988 47.7758 60.9939 -69.6222 435.684
7024 1 -1.47167 -89.5664 -15.2002 35.8274 -454.997 562.071 45.7453 -86.6181 -33.1531 -389.743 899.009
12309 2 -5.06623 -88.8696 -18.8984 -89.3327 218.242 -266.024 19.2399 54.2144 -1.34734 -71.7292 436.006
11852 2 -1.5417 -88.0864 -15.991 -63.2559 264.618 -287.477 -24.0631 39.8343 29.0159 -75.1611 490.22
6915 1 -5.9324 -87.8255 -19.7833 192.631 -438.112 546.052 -96.655 -36.9538 38.5034 -390.276 884.438
20025 2 -6.63163 -86.9448 -16.3338 -60.7842 212.779 -249.998 27.0878 67.0387 42.0553 -70.1971 428.241
17276 2 -3.82975 -86.724 -16.3374 -66.5419 223.252 -271.125 52.2139 68.4662 22.9334 -73.7247 457.101
12316 1 -5.22283 -86.7262 -15.5807 122.948 -457.381 564.556 -93.3538 -118.761 -59.2546 -390.262 931.165
9616 1 -2.22038 -86.7309 -16.224 129.41 -472.875 557.337 -5.09977 -88.1683 -42.5863 -380.498 912.382
12216 2 -2.55136 -87.08 -20.7033 -39.9319 212.596 -299.889 18.8181 41.1354 -51.9473 -69.5507 459.596
12363 1 -1.45622 -88.2765 -20.7823 89.3489 -501.359 649.633 -68.48 -72.7386 113.415 -392.58 1030.7
1833 2 -5.10931 -86.5718 -20.1456 -109.912 212.671 -267.045 59.7647 29.5579 -27.7097 -70.5603 441.678
12086 1 0.0585097 -92.0744 -17.7895 220.052 -377.353 552.041 -156.956 -346.134 16.8572 -387.28 1048.63
12212 2 3.28929 -92.084 -15.7969 -259.77 188.645 -279.656 -31.4638 4.45797 -38.239 -89.0333 466.696
17001 2 0.608226 -90.7117 -18.3906 -125.184 176.809 -217.519 62.4257 106.199 -50.3897 -78.0499 425.15
14694 2 3.68224 -90.7603 -19.0162 -118.684 132.241 -185.202 -2.73437 -29.3827 -166.489 -80.3478 412.125
11929 1 3.89493 -90.6225 -15.3352 476.212 -471.567 400.661 51.1414 27.0325 48.6817 -353.65 921.702
11919 1 3.19325 -90.244 -20.44 167.616 -228.736 410.804 -85.6859 27.8245 278.137 -378.577 754.356
6924 2 0.170227 -89.5797 -15.5801 -117.766 258.534 -256.315 -60.4097 50.7043 8.08436 -79.7086 481.446
7327 2 2.76247 -89.546 -15.5445 -230.579 291.551 -211.737 -57.0264 15.4438 -15.8692 -88.4911 523.798
19397 2 2.04614 -89.2066 -19.8993 -111.337 162.774 -195.319 33.4283 -9.69822 -113.642 -79.539 384.173
9243 1 0.869627 -89.1832 -18.8664 282.563 -412.999 359.405 -31.8055 -70.6301 125.562 -378.66 780.037
14679 1 1.47963 -88.6864 -15.9942 380.104 -634.572 420.293 145.575 -79.7509 10.2945 -366.955 1074.68
9428 2 1.45497 -88.5176 -17.5211 -184.299 269.932 -148.896 -43.0303 17.8153 -28.3172 -80.2607 447.672
7423 2 -0.535983 -88.5215 -19.4909 -118.181 219.82 -232.103 35.9033 40.8846 -37.0518 -73.812 422.764
11934 2 1.52796 -87.1539 -15.5067 -192.122 291.778 -224.249 -89.0722 19.8412 -13.567 -85.4044 525.616
11914 2 4.88973 -90.5204 -16.5634 -178.476 188.995 -168.973 14.3406 -89.8765 -82.7556 -86.411 420.749
14485 1 5.04084 -90.6164 -18.1711 290.272 -344.145 365.943 8.00852 192.341 308.62 -367.508 923.653
22211 2 9.46661 -92.3607 -18.543 -186.787 261.203 -284.708 -76.43 -120.024 -47.7605 -72.1688 567.218
12321 2 7.61318 -92.1806 -16.8901 -177.783 211.111 -251.679 -13.6205 -103.333 -37.2508 -76.1376 471.369
14443 2 5.85411 -91.9346 -18.5949 -182.913 212.732 -266.801 -37.2863 -122.896 -131.639 -79.2438 546.104
19227 1 8.91083 -91.4305 -17.3272 350.61 -475.942 429.913 3.08355 123.81 44.5233 -386.299 898.325
19784 2 9.72579 -91.0685 -16.008 -145.162 209.381 -186.497 4.34899 1.47529 0.058217 -70.3021 376.998
12010 2 8.38428 -90.0566 -18.1417 -183.717 244.362 -185.364 29.6378 -55.938 -72.4445 -79.7256 460.137
12503 2 7.21594 -89.4999 -20.6596 -172.291 202.752 -150.8 -28.4876 -93.0513 -145.842 -84.3365 474.636
14592 2 5.90774 -89.327 -18.5256 -155.019 217.798 -164.329 33.5249 -88.1719 -130.035 -83.0057 469.012
16983 1 7.42101 -89.0655 -19.1221 357.172 -459.711 315.592 -38.471 107.439 227.78 -367.824 910.924
11997 2 7.44199 -87.5014 -19.2451 -181.104 197.999 -122.66 2.8136 -19.9209 -62.9958 -84.8431 371.615
17013 2 10.2265 -87.5569 -18.4776 -142.772 160.077 -133.358 10.0025 -12.5959 -16.4366 -80.4999 300.901
26897 2 8.54092 -87.0216 -16.5186 -167.259 191.551 -143.384 25.9013 -22.4529 -30.9278 -79.4027 356.57
24493 1 8.33059 -87.65 -15.0716 288.121 -376.503 294.111 -79.9008 77.0247 96.1401 -378.746 714.438
24513 2 9.24065 -88.889 -14.9221 -157.814 170.09 -162.36 34.443 -21.3056 -37.8506 -76.7443 343.876
19505 2 15.2283 -92.4693 -15.196 -281.542 244.274 -236.035 13.0172 -34.8724 1.75311 -72.2984 508.715
14741 2 15.7089 -91.9043 -20.2737 -221.653 230.498 -192.14 14.2254 -13.1959 7.10878 -72.6874 439.6
19405 1 15.0441 -90.9295 -15.2941 463.037 -498.663 456.824 4.75132 89.3837 75.2016 -386.086 979.761
1824 2 16.5429 -90.3248 -15.6023 -206.023 231.285 -231.495 32.113 -31.8548 -30.1512 -74.7371 460.317
19425 2 14.2014 -90.2009 -16.4796 -187.056 238.226 -203.67 -43.3036 -9.01831 -33.1931 -72.2916 444.276
17109 2 11.7007 -89.3085 -20.0109 -170.693 219.642 -155.298 -46.1303 -27.902 -6.33073 -76.2992 394.245
17489 2 12.5055 -88.4553 -17.5192 -135.307 160.816 -162.732 -28.6953 18.8076 -17.1579 -74.2874 317.769
12183 1 13.7756 -88.5915 -16.6023 266.788 -379.228 391.606 95.209 -25.4833 66.6198 -386.658 745.66
17187 1 11.7142 -88.1296 -18.8844 297.467 -327.426 263.69 26.9171 11.4993 11.9472 -380.742 611.166
24606 2 13.6848 -87.8154 -15.1519 -146.034 211.963 -198.02 -41.3947 -23.377 -10.2926 -75.5283 395.694
19403 2 15.1172 -87.793 -17.2021 -124.199 181.771 -206.144 -25.6369 -4.54878 -26.2508 -73.5479 359.87
14896 1 16.6827 -87.3467 -17.205 240.91 -356.918 376.087 -35.758 56.9398 62.9052 -389.693 694.203
17039 2 12.4757 -86.841 -19.533 -155.648 155.358 -119.188 16.6394 -5.98696 -9.81279 -77.7903 296.55
16637 2 17.0769 -91.261 -18.0893 -229.477 220.656 -149.553 48.5051 -41.9536 24.5542 -70.5401 432.641
17077 1 17.1244 -92.13 -19.4219 473.365 -438.447 321.933 -147.168 21.9005 -45.1847 -393.765 888.141
7115 2 17.3005 -86.8577 -15.8044 -111.809 188.213 -242.108 31.1208 -21.8557 0.265572 -74.0109 387.844
24378 2 17.3869 -88.7282 -17.462 -165.36 191.906 -184.464 32.3403 -50.5765 -13.5357 -72.2484 382.349
27070 2 18.2134 -91.5302 -20.4146 -226.375 211.71 -194.373 111.547 -24.7267 4.80688 -70.6714 467.07
29298 2 21.5848 -91.1806 -18.0815 -150.579 170.153 -216.234 134.187 34.5826 -91.0546 -64.8069 459.038
27201 2 18.9744 -90.4251 -16.4405 -135.237 197.098 -204.22 62.0597 -31.8479 -17.254 -69.7923 391.945
14416 1 17.4448 -90.2363 -16.9089 382.356 -421.995 395.453 -82.0697 96.5416 -3.79646 -390.197 840.177
21988 1 19.0781 -90.2195 -20.7871 352.828 -403.963 384.775 -247.373 55.6225 23.5099 -394.528 890.197
22012 1 19.7834 -89.9644 -15.0836 197.106 -400.152 463.366 -94.7686 33.6844 67.9062 -396.263 794.241
22361 2 21.3591 -89.944 -15.2313 -110.925 173.019 -217.581 33.0059 -19.6292 -61.6411 -68.761 371.627
17179 2 19.8517 -89.8726 -19.4475 -151.772 163.738 -186.795 128.368 -24.7112 -21.5395 -70.3319 405.564
2030 1 21.2813 -89.8238 -18.7764 236.63 -264.723 374.66 -289.593 22.7773 107.246 -394.672 791.999
14433 2 22.4237 -89.6249 -19.9671 -72.1627 68.6339 -173.552 161.433 -19.5722 -39.6649 -71.7008 358.371
17100 2 21.5151 -88.4796 -17.9327 -100.864 120.471 -179.969 79.796 -52.6269 -30.6238 -73.0267 320.905
19588 1 22.0176 -86.9384 -18.2277 146.761 -217.609 368.053 -34.528 135.738 12.154 -385.042 567.153
16969 1 22.9457 -89.8312 -14.9397 308.55 -378.466 400.399 -24.6333 68.1688 195.66 -396.241 821.059
29601 2 22.6879 -87.2235 -19.7017 -38.2556 79.5252 -170.653 43.9338 -46.3962 -22.1329 -77.0867 246.4
29569 1 23.9656 -92.6504 -15.9444 393.202 -417.983 631.794 -65.5713 -7.33555 298.108 -408.177 1090.02
21898 2 25.4333 -92.6797 -16.7087 -272.381 237.904 -306.084 54.5179 -56.4527 -174.68 -61.608 623.491
24504 2 23.6272 -91.246 -15.2117 -168.661 206.755 -246.562 15.8319 -15.7033 -126.594 -68.4896 475.206
4599 1 27.5838 -91.2951 -17.9233 656.313 -434.606 415.434 -133.835 152.073 382.556 -401.685 1243.99
29792 2 27.7063 -90.6512 -16.4033 -276.763 200.743 -171.431 128.132 -15.3786 -150.237 -69.5798 553.613
24558 2 26.3864 -90.7213 -18.8359 -251.268 156.869 -196.601 65.7016 -60.3198 -171.793 -72.4693 509.565
5 2 28.6827 -90.5605 -18.871 -238.593 123.338 -199.273 39.7109 -66.5936 -119.2 -69.7035 423.048
24675 1 28.0322 -89.8656 -15.0973 418.386 -362.495 335.117 -359.55 -57.0896 203.143 -394.7 1035.9
14510 1 26.1714 -89.2104 -19.3996 327.778 -89.4082 377.259 -92.0489 91.4401 167.584 -364.876 576.1
10 2 24.7899 -88.7595 -20.0837 -57.7538 5.71001 -184.637 75.1082 -26.3749 -40.5529 -83.0294 228.306
27371 2 27.3999 -88.8807 -20.5967 -168.679 18.7253 -192.907 28.6603 -53.5879 -15.3356 -88.4903 228.106
22367 2 23.7301 -88.64 -15.5965 -124.362 162.486 -170.661 33.0728 -76.5983 -94.4199 -71.001 381.228
2032 1 23.326 -88.4502 -20.596 49.5663 -51.5562 310.885 -201.706 28.0055 52.1509 -378.588 487.346
27299 2 28.436 -88.4209 -15.5851 -158.387 91.7526 -131.088 154.591 70.5699 -53.9662 -74.2887 389.691
14598 2 26.4603 -88.172 -18.2485 -156.562 72.8819 -160.504 58.6324 -31.2871 -51.7179 -85.5372 273.567
29761 1 24.0122 -87.0427 -15.8314 194.26 -230.949 302.508 -62.7323 190.099 12.5219 -391.044 599.364
20152 1 26.5683 -86.7803 -17.4573 232.943 -205.414 299.508 -149.662 23.599 7.80985 -372.894 542.97
27079 2 25.5696 -86.8642 -16.1723 -74.6874 99.3246 -141.957 47.8504 -58.1546 2.44553 -73.4197 252.079
5162 1 28.8335 -86.9172 -15.678 242.711 -137.85 215.551 -227.479 -142.633 69.4617 -382.511 604.96
2223 1 28.9264 -89.8911 -20.2849 303.866 -65.5169 404.945 -54.0868 193.796 56.6755 -381.123 561.32
29891 2 26.126 -86.517 -20.9589 -135.212 136.22 -189.109 29.5289 2.02496 -47.0812 -87.9617 316.998
7492 1 34.8521 -88.5202 -16.7214 51.6372 47.5341 391.767 102.812 70.5925 20.2239 -405.767 406.187
4740 2 34.2821 -89.3944 -15.4992 -48.1884 23.5592 -276.06 -20.8849 -32.6941 -33.3557 -60.1005 285.089
29289 2 34.0525 -88.9014 -18.0423 -47.1365 -18.5671 -164.757 -18.356 -4.93172 16.6093 -61.5312 141.147
9928 1 33.9184 -88.4698 -19.6083 35.0753 106.617 293.566 0.00230406 -17.3514 -94.332 -402.84 284.678
2515 2 30.0461 -88.7939 -20.2451 -25.4588 3.89828 -189.441 66.5179 -71.1423 29.0008 -77.6176 252.085
4823 2 32.4915 -87.7618 -19.6615 6.45389 -27.4851 -135.139 23.9166 -7.9522 72.0511 -71.1232 184.051
9724 1 30.9188 -87.4495 -19.8514 -9.02033 -58.1484 310.379 -134.579 45.6252 -134.332 -381.65 484.598
128 2 30.4234 -86.8123 -15.5919 -89.15 31.3082 -132.778 101.24 39.3133 -51.4318 -77.2727 254.931
27012 2 34.7505 -86.9056 -16.5185 -30.6673 22.9444 -229.734 -28.2566 -49.6164 3.79015 -70.8299 250.994
1781 2 30.2943 -86.7415 -18.5926 -34.7091 64.7022 -144.696 100.488 31.4498 41.9986 -78.6874 267.331
27562 2 33.9485 -89.7278 -20.7057 -53.1039 -2.69584 -236.389 -7.6196 17.7421 26.6438 -60.2485 220.503
26871 1 -20.4719 -86.1322 -16.7715 119.39 -240.289 365.673 15.3823 -84.8859 14.8633 -393.673 549.178
7685 2 -20.2993 -86.0663 -15.0887 -67.2691 145.235 -174.316 -5.91656 32.8823 -21.0934 -69.8841 289.912
29648 2 -23.0012 -85.6407 -19.4121 -45.4397 92.4344 -208.624 -17.1909 14.9915 35.9991 -70.1868 271.267
1640 2 -21.3102 -84.9649 -17.485 -26.3129 127.577 -235.458 -16.886 33.3044 16.7899 -70.0253 323.477
2608 1 -22.2177 -84.3866 -18.8718 83.2543 -283.868 481.656 54.1562 -38.2838 -67.0116 -394.591 682.958
24612 2 -20.9014 -84.1282 -19.8815 -83.9907 141.811 -180.54 -29.827 47.1642 20.2241 -71.4446 304.432
7419 1 -19.3218 -83.8382 -20.1589 280.05 -290.201 234.503 62.3964 -164.946 -46.2647 -389.056 633.253
4955 2 -22.9199 -82.9134 -18.7691 -57.8647 166.302 -235.724 -28.3461 -17.9521 36.8059 -70.6723 359.439
29750 1 -23.5214 -81.3544 -18.7065 110.537 -226.608 386.249 -22.2523 32.8004 -51.3233 -386.217 543.373
2100 2 -23.3057 -80.5872 -20.0906 -79.5959 97.4179 -140.777 14.8943 -19.3366 13.1305 -75.3772 219.571
14962 2 -22.7259 -80.444 -17.6203 -18.6834 88.5684 -215.315 20.5539 10.9857 32.1772 -76.0738 275.666
366 2 -25.0406 -84.4117 -15.4284 -70.375 137.258 -202.413 19.1858 -2.51576 23.3581 -71.5687 301.199
5039 2 -24.4282 -81.7901 -14.9942 -95.5263 99.7191 -165.94 64.8435 2.0528 -12.6453 -73.4729 264.449
2035 2 -19.0211 -86.2497 -17.3906 -105.32 170.107 -191.082 -24.6211 49.0934 19.6162 -74.3726 342.111
10187 2 -18.8915 -82.4442 -19.4323 -123.734 172.794 -133.547 -38.7879 104.459 41.6379 -74.5396 365.219
9869 2 -16.4814 -86.6273 -18.1916 -118.511 214.478 -279.829 -54.3862 49.4075 62.6619 -77.4799 467.546
2524 1 -17.9252 -86.158 -18.6781 236.657 -401.79 467.477 90.7588 -163.452 -101.229 -382.58 862.474
4900 1 -13.4798 -85.2906 -16.9248 309.034 -481.058 447.907 261.906 -39.0561 -191.767 -379.452 1036.31
27167 2 -18.3656 -84.8006 -19.2766 -149.853 159.916 -196.622 -30.0098 81.4038 44.91 -75.8976 375.851
7772 2 -13.6996 -84.3989 -15.5642 -153.415 252.54 -191.244 -116.273 45.3591 105.625 -79.0656 511.652
9814 2 -14.1868 -84.4339 -18.1297 -189.859 233.686 -216.562 -116.694 -8.39761 68.4926 -78.8283 496.539
7484 2 -16.1135 -84.1191 -15.0881 -237.142 285.109 -202.539 -9.68395 33.2834 59.217 -83.9132 519.611
12289 1 -17.5839 -83.5745 -15.3096 337.788 -510.945 377.371 -64.6769 -90.3301 -120.849 -369.349 914.523
9964 1 -14.7935 -83.2686 -19.0813 401.181 -380.568 283.239 134.249 24.3857 -86.7247 -380.351 781.829
7951 2 -17.8882 -83.1625 -16.7984 -147.034 207.626 -188.939 2.94105 93.8269 96.2693 -82.3296 443.443
7326 2 -16.3121 -82.6536 -18.6329 -167.17 170.38 -131.352 -37.1114 42.634 69.5578 -80.365 356.696
2583 1 -17.8429 -82.2454 -18.1779 275.528 -356.091 308.409 72.7166 -208.852 -164.597 -374.169 805.474
2314 2 -13.8571 -81.9763 -18.704 -186.993 183.514 -139.236 -12.9501 -25.5795 40.8635 -75.1907 359.635
12403 2 -18.288 -80.8302 -17.6936 -117.582 153.767 -144.663 -65.5373 124.748 53.7898 -82.4239 387.251
9635 2 -14.7703 -83.5311 -20.6532 -180.836 145.785 -110.027 -64.9634 -1.52097 -1.37246 -72.5134 318.183
12494 1 -14.7256 -80.5256 -15.2218 225.616 -274.179 432.822 47.8343 -38.5207 -99.5488 -347.098 661.314
7383 1 -13.8238 -80.4684 -18.207 255.418 -231.238 213.234 -66.2933 50.5849 -20.2316 -381.709 490.074
4622 1 -7.96865 -86.0734 -16.6074 97.4487 -381.301 487.677 -39.4019 -77.2042 -122.979 -397.016 797.629
7379 2 -12.4768 -85.504 -20.5706 -167.17 147.498 -187.902 -102.633 -9.41751 -46.6261 -72.6531 379.945
11913 2 -8.50615 -85.6465 -15.1048 -51.9274 193.663 -260.006 -6.25536 25.5726 68.2009 -69.4949 413.215
2300 2 -11.8767 -85.5023 -16.9565 -77.4841 201.859 -231.684 -92.4834 36.9458 92.5861 -73.0751 447.611
2016 2 -7.3844 -84.8191 -17.5452 -74.295 192.551 -242.546 25.7107 29.0562 40.7909 -67.6755 392.327
19902 2 -8.17784 -84.6013 -19.9737 -74.7248 169.527 -244.893 49.7963 41.5729 -1.89283 -65.0224 377.909
2307 1 -7.28016 -83.8281 -18.8624 194.825 -393.584 479.241 -38.6623 -25.559 -54.2916 -403.46 780.87
2324 2 -7.94753 -82.3471 -18.565 -104.628 194.823 -243.979 -27.0187 -9.29111 28.0427 -64.3054 394.495
20075 2 -8.50544 -81.3168 -16.2206 -62.2688 134.204 -231.835 -51.8668 -8.19857 -4.92298 -70.5417 330.173
12397 1 -8.24241 -80.9057 -17.7537 183.918 -288.207 411.602 110.318 42.8938 24.7682 -398.513 652.769
17202 2 -1.54836 -85.8155 -17.4264 -110.386 189.127 -178.956 -19.5957 31.2419 3.71119 -77.36 345.064
14603 2 -5.32379 -85.2354 -15.0162 -40.0261 189.782 -287.313 14.6077 22.7425 42.0849 -74.435 422.252
17465 2 -3.6091 -84.5352 -20.31 -103.118 156.982 -182.681 30.6767 34.1449 -38.4188 -70.6935 324.693
5003 2 -5.82472 -83.4258 -19.3992 -131.141 172.427 -208.062 11.0783 10.6902 -6.91299 -68.0557 349.679
14411 2 -1.45599 -83.3635 -16.7539 -131.261 165.445 -188.965 -23.2838 -6.53998 -41.0685 -82.5016 339.559
7299 1 -4.23374 -83.2662 -19.5665 234.862 -307.836 321.985 -12.7723 -67.3506 74.7659 -394.082 616.652
17170 2 -3.81029 -83.2741 -15.4009 -82.1817 148.525 -244.034 -51.0094 4.31338 13.7731 -79.8111 353.826
4722 2 -3.65618 -83.0581 -18.0815 -94.8822 118.438 -157.988 -18.0818 54.5685 -39.5511 -73.5093 278.49
7420 1 -2.96325 -82.6876 -16.6465 202.14 -301.479 386.64 66.0831 -56.8859 54.8508 -377.854 642.204
17081 2 -3.74622 -81.9538 -20.4252 -111.746 144.542 -145.151 -12.8381 11.7554 -61.5227 -70.5374 296.015
19687 2 -2.65876 -81.0811 -16.5845 -98.1041 200.691 -191.842 -30.8576 5.56771 -25.3057 -75.6561 361.863
7204 1 -3.77806 -86.0566 -20.9289 185.226 -388.903 499.289 -86.8934 -80.9507 121.389 -395.024 833.72
11837 2 -1.77291 -85.8761 -14.8312 -81.7047 191.964 -306.58 -31.7848 27.3782 3.41286 -83.8992 438.542
12400 1 -1.3995 -80.3948 -16.0585 239.729 -446.212 400.004 15.4549 60.3646 50.4572 -378.521 790.84
12002 1 1.4632 -85.5529 -15.3752 275.342 -412.096 432.283 144.837 15.5601 99.7709 -362.03 835.829
2118 2 4.19008 -85.053 -17.2956 -143.601 204.423 -121.96 -14.0329 -62.4769 -58.8606 -80.392 369.8
7400 2 3.67906 -85.1115 -20.055 -116.127 183.066 -161.73 -54.1985 -49.7884 -13.714 -83.0195 349.362
21706 2 0.714738 -84.9454 -16.6261 -139.108 183.247 -167.701 -43.201 -30.8724 -66.7723 -83.7237 368.485
24400 1 4.38199 -84.8655 -15.7077 265.423 -454.332 349.236 -27.9286 88.8136 149.257 -374.043 823.549
17084 2 2.86224 -84.8311 -15.1884 -118.486 227.984 -211.513 -13.3126 -27.843 -68.0808 -83.1848 421.532
9410 1 4.56956 -84.584 -18.7817 284.898 -378.18 241.027 98.8835 87.0762 15.4284 -371.402 682.13
14872 1 -0.572696 -84.4957 -17.4572 266.695 -321.996 276.232 61.1245 56.206 97.0921 -373.214 633.427
19524 2 1.42513 -84.2266 -20.7562 -147.321 184.717 -183.816 -46.9257 -23.0787 -34.5721 -81.4483 368.087
12414 2 -0.247247 -83.7996 -18.8562 -136.908 157.907 -105.057 -6.35301 -52.178 -58.9259 -78.1372 311.843
17091 1 0.320195 -83.208 -20.2543 271.908 -343.811 280.105 49.7104 11.9638 109.67 -375.656 654.331
17385 2 4.45067 -82.9496 -18.5411 -152.799 201.421 -161.491 -44.7821 -1.86412 20.9759 -81.8944 368.745
2142 2 0.963951 -81.7908 -20.0459 -172.725 171.289 -144.477 -34.4372 12.8487 -24.2138 -81.8506 339.467
14809 1 3.9538 -81.4388 -18.4111 232.119 -376.676 340.017 45.8438 -0.778922 -53.0384 -370.104 680.226
14892 2 2.56682 -81.3293 -17.6014 -148.904 194.655 -159.353 -19.3647 -16.4827 5.13687 -83.1938 351.782
4915 2 1.75889 -81.0699 -15.1422 -124.309 208.349 -175.022 9.14407 -39.9699 -26.6393 -81.5661 370.508