ITEM: TIMESTEP
1020000
ITEM: NUMBER OF ATOMS
29952
ITEM: BOX BOUNDS pp pp pp
-2.5093087473165852e+01 3.5078381815859899e+01
-9.3488490430559040e+01 1.0347378477255904e+02
-2.0985542515027589e+01 3.4853395661184415e+01
ITEM: ATOMS id type x y z v_StrAtomXX v_StrAtomYY v_StrAtomZZ v_StrAtomXY v_StrAtomXZ v_StrAtomYZ c_PEAtom v_VMS
7205 2 -21.9423 -87.2863 -15.1511 -32.0389 18.7501 -209.852 -59.9035 50.3098 -36.7895 -69.6547 256.216
4993 1 -21.4106 -87.4604 -19.5981 198.587 -117.67 376.442 166.017 -18.2222 -82.7272 -398.444 540.472
9799 2 -21.6534 -87.8874 -18.0137 -107.841 84.8389 -215.65 -72.0143 16.6341 23.6828 -62.8211 295.959
2327 2 -21.0079 -88.4792 -20.8002 -149.692 118.052 -232.581 -81.6537 20.356 27.2768 -64.2396 352.459
29673 2 -17.7318 -87.5923 -19.4188 -136.386 109.988 -167.376 -170.009 86.815 47.4468 -74.3343 430.546
27087 1 -16.6353 -88.1668 -18.4664 296.032 -301.768 341.177 380.16 -88.0294 -85.2672 -385.208 930.061
9700 1 -17.0976 -88.5444 -15.4522 360.737 -249.789 328.013 290.257 119.373 -62.2935 -379.715 813.002
7411 2 -17.1752 -88.6463 -17.0023 -176.44 143.931 -150.704 -153.001 -12.234 30.3271 -72.5714 410.476
4495 2 -13.558 -88.913 -20.2476 -183.296 247.293 -186.396 -150.652 89.2598 44.1299 -79.8472 533.464
2196 2 -15.8796 -89.2671 -19.3722 -160.382 178.38 -197.192 -205.519 46.3009 57.5784 -73.2612 521.225
4248 2 -13.7817 -90.608 -15.7925 -259.141 245.817 -244.716 -131.526 -77.8239 79.8296 -71.213 580.597
12116 2 -13.4565 -90.4214 -18.2123 -244.735 246.164 -278.629 -163.222 -1.44901 83.862 -81.0079 599.832
4527 1 -13.3285 -91.479 -17.0074 581.718 -588.624 587.406 229.016 127.505 -115.708 -389.273 1273.84
7410 2 -13.3464 -88.0297 -15.4661 -128.21 157.887 -188.018 -105.686 -45.1092 62.9561 -77.8421 392.482
4519 2 -13.6055 -93.0098 -17.4524 -326.659 386.9 -373.052 -20.1409 -59.0174 -28.2829 -63.48 747.321
6926 1 -14.0532 -89.412 -14.7973 365.764 -298.189 369.828 289.528 123.403 -154.023 -385.001 901.046
2278 2 -15.6555 -89.1553 -14.9644 -171.483 129.124 -207.627 -165.83 -84.8225 51.6546 -76.9248 463.276
29775 1 -15.0064 -89.3578 -20.7568 368.448 -358.073 324.567 409.372 -191.799 -93.1956 -380.412 1066.33
19117 1 -8.13766 -87.6039 -19.1877 135.579 -486.175 621.545 52.7196 -41.5811 -15.3158 -385.072 969.083
7117 1 -12.1214 -87.689 -16.4213 219.749 -428.568 497.517 147.388 -2.69331 -112.768 -381.265 883.682
16822 2 -9.00649 -88.0078 -17.8447 -55.7968 236.57 -278.833 -31.3168 29.134 30.9966 -73.8871 456.949
27068 2 -12.5356 -87.9538 -17.9574 -149.069 258.888 -279.2 -84.6964 9.94794 46.5901 -79.7845 514.568
5069 2 -8.47825 -88.1822 -15.1074 -117.629 185.752 -246.65 -68.5364 60.4018 32.3396 -69.674 419.528
9506 1 -9.27184 -88.7249 -16.3897 135.252 -394.115 488.584 128.275 -163.706 -108.031 -390.746 869.994
29566 2 -10.8545 -88.6252 -16.1307 -73.5 172.672 -247.594 -75.7117 53.5567 79.6287 -73.955 422.6
7201 1 -12.6786 -89.1595 -18.9507 366.024 -545.607 512.394 251.819 -70.6664 -141.683 -370.34 1118.65
9798 2 -11.2532 -89.7339 -19.3488 -129.703 280.485 -332.784 -57.5105 29.8864 55.5535 -83.0811 560.944
9438 2 -8.83418 -90.3046 -16.3584 -103.563 204.93 -243.446 -67.1295 116.195 62.512 -71.9459 472.9
4899 1 -10.2499 -90.8124 -20.0193 136.366 -437.817 737.229 30.0608 -101.766 8.44712 -366.584 1034.27
9517 1 -8.25184 -91.7436 -15.9089 353.29 -402.703 532.552 67.5382 -240.287 -95.0581 -398.589 976.313
17086 2 -9.90721 -92.1119 -19.086 -100.109 192.414 -401.474 -25.9925 78.0906 -17.605 -81.8812 534.6
7017 2 -11.8133 -91.991 -17.2255 -247.937 279.171 -318.156 -90.7859 13.5774 30.9295 -74.5516 589.861
9608 2 -8.86487 -92.8221 -16.8041 -166.597 237.817 -338.144 -18.3715 131.681 -14.5592 -66.7897 562.16
14621 2 -12.5229 -93.2266 -19.8969 -349.296 326.419 -398.461 -5.00218 90.6037 -26.675 -76.8645 720.462
12202 2 -8.88436 -90.1294 -20.54 -18.4053 232.077 -367.583 4.53722 9.16701 -36.2732 -80.187 525.729
4816 1 -12.1359 -93.2594 -18.2784 666.74 -697.568 800.049 44.3633 -52.5295 100.615 -389.473 1451.05
7300 1 -9.33466 -93.3552 -18.2151 268.3 -526.923 855.624 55.4648 -217.269 138.522 -394.465 1285.61
19703 2 -9.10827 -87.3351 -20.442 -61.4997 258.534 -306.547 -46.9643 36.2626 -26.5946 -74.3716 503.564
12367 2 -6.85044 -91.8251 -20.3584 -32.7019 169.268 -364.991 -43.1839 -1.41845 -32.7093 -79.3748 476.582
19496 2 -6.63588 -91.6484 -16.1484 -203.919 185.095 -287.937 -27.4076 73.1211 47.1243 -70.1654 464.791
7053 2 -6.81681 -88.6538 -18.9171 -101.919 236.609 -287.874 -16.4365 44.1154 8.78683 -75.9355 467.987
7024 1 -1.59224 -87.7404 -15.2651 -24.2844 -378.156 569.818 -12.4355 -110.468 -104.622 -394.814 870.821
14431 2 -2.93056 -88.3958 -15.8991 -22.3674 172.873 -272.959 45.147 67.2341 92.3392 -67.2001 441.697
16617 2 -5.32858 -88.557 -16.5826 -117.737 200.344 -227.39 13.059 73.6641 42.9902 -70.0215 412.812
19501 1 -5.33265 -88.4517 -18.2238 202.39 -471.498 489.333 50.0269 -148.99 -12.916 -390.213 896.901
17008 1 -4.24101 -89.0581 -15.4121 191.176 -356.489 511.523 -105.174 -108.353 -166.122 -399.492 853.931
14684 2 -1.92226 -90.4115 -19.8255 -79.4123 185.678 -343.117 95.7071 103.897 31.7005 -77.16 522.108
17135 2 -4.02336 -89.331 -18.5881 -53.7103 188.491 -282.955 -15.3799 63.5905 37.788 -73.0141 428.792
17093 2 -1.53773 -90.3346 -17.4721 -26.9996 161.677 -306.644 71.3178 121.895 64.581 -70.544 488.782
9712 1 -2.82647 -90.3958 -18.4622 86.7959 -371.88 627.088 -79.4063 -143.767 -103.475 -387.507 929.065
16881 2 -4.36778 -90.5934 -15.386 -132.451 192.191 -270.938 34.1572 36.6229 70.6237 -65.6077 438.198
9630 2 -3.48526 -91.7595 -18.0691 -125.321 197.912 -332.813 19.9451 21.1267 18.2108 -71.9306 467.042
14307 1 -5.30738 -91.9181 -15.3053 436.102 -405.646 597.691 38.6071 -64.4278 -76.4767 -406.225 951.388
17074 2 -1.33504 -92.9505 -20.3546 -216.391 291.222 -415.933 34.2079 112.31 12.3362 -68.9233 663.766
16917 2 -4.44389 -93.0688 -16.1678 -221.289 254.982 -356.281 -34.6771 37.16 -26.3119 -59.6789 564.957
14618 1 -4.18612 -93.197 -17.7488 394.586 -500.091 700.185 49.4084 -32.2775 63.1782 -404.171 1090.72
14115 1 -6.69836 -93.3602 -19.6882 159.009 -413.251 780.616 90.6453 -5.95401 131.697 -395.877 1070.69
9885 2 -5.67092 -93.3525 -18.4445 -153.89 228.256 -359.067 -38.1155 10.1759 -47.1567 -67.4986 527.144
12185 2 -3.80789 -92.6695 -20.949 -197.013 205.117 -384.8 -36.3084 62.1834 -4.73999 -79.6729 536.758
11918 1 -0.693693 -91.4161 -20.3598 256.743 -414.712 717.755 -253.12 -257.188 -35.7643 -387.757 1169.37
19397 2 1.94701 -87.4546 -20.0139 -114.113 166.867 -242.513 61.4869 4.8497 -84.4815 -75.6813 405.386
7327 2 2.7615 -87.6343 -15.4668 -235.914 298.828 -222.518 -63.6672 38.7403 16.897 -86.3533 544.503
6924 2 0.167708 -87.788 -15.5019 -93.5311 237.511 -263.513 -44.3244 61.5418 47.9065 -77.3839 467.863
11919 1 3.13414 -88.505 -20.41 145.639 -179.063 444.15 -156.318 31.0674 236.426 -383.428 731.683
11929 1 3.9321 -88.6848 -15.1517 480.69 -503.431 403.342 41.499 -29.9798 -0.699206 -356.613 951.956
14694 2 3.66656 -89.0081 -18.9271 -107.286 96.3837 -191.39 27.8529 -9.95534 -148.15 -79.574 366.271
17001 2 0.585233 -88.9064 -18.4164 -104.699 159.285 -250.609 73.94 115.533 -13.4646 -77.4518 431.838
12212 2 3.40866 -90.2429 -15.468 -271.119 165.266 -281.893 -35.0699 31.5507 -12.9747 -89.8425 449.923
12086 1 0.102305 -90.3571 -17.788 151.879 -322.424 576.072 -181.315 -377.2 -25.2515 -385.926 1064.65
12198 2 0.989632 -90.7274 -16.4429 -127.765 184.509 -293.784 46.3955 176.878 -5.98297 -76.1613 526.634
12111 1 1.90476 -91.047 -15.179 450.958 -421.857 624.475 -49.6798 -169.753 33.1401 -375.056 1020.05
4424 2 0.304943 -91.292 -19.0973 -114.191 203.686 -336.836 113.074 170.787 8.19008 -70.8538 589.452
17006 1 4.37355 -91.793 -15.3292 621.422 -535.133 641.032 56.6979 29.809 52.1979 -373.359 1175.23
24524 2 2.84757 -92.3531 -15.3034 -304.99 340.265 -400.135 31.0458 65.1047 -20.1161 -73.3818 709.663
11914 2 4.90187 -88.6216 -16.4622 -196.388 209.387 -172.513 18.2339 -73.2859 -50.2607 -85.0876 424.528
9243 1 0.836208 -87.3758 -18.8481 272.292 -421.674 415.695 -63.6762 -102.136 34.8473 -385.072 805.464
14485 1 4.97361 -88.8805 -18.0028 297.791 -301.566 359.209 -22.8142 161.705 279.182 -369.747 844.777
19508 2 5.49943 -92.0199 -16.4999 -263.222 287.436 -349.916 -36.9855 -99.4866 -28.3493 -75.3811 628.241
14592 2 5.75643 -87.5061 -18.4891 -169.928 214.278 -159.503 50.9022 -93.0287 -126.445 -79.3121 474.783
12503 2 7.13735 -87.7922 -20.4845 -197.115 164.355 -144.808 16.5549 -117.696 -154.481 -79.1533 477.977
12010 2 8.19504 -88.2995 -17.9556 -198.974 231.226 -174.748 59.7351 -62.6824 -69.7361 -74.9285 460.78
19784 2 9.96152 -89.2335 -15.9736 -152.577 201.202 -162.664 42.6461 23.5968 30.9384 -64.9003 372.596
19227 1 8.89841 -89.5822 -17.1918 388.141 -430.96 415.03 -54.1063 107.053 14.7977 -394.139 858.775
14443 2 5.87399 -90.1822 -18.1712 -182.84 168.513 -260.083 -24.5593 -119.832 -126.59 -79.7182 499.518
22211 2 9.49346 -90.4151 -18.3869 -191.925 219.34 -261.562 -47.7471 -143.985 -38.3742 -67.7636 525.433
12321 2 7.6669 -90.4658 -16.4953 -182.936 176.46 -241.173 6.47002 -83.0082 -25.5697 -74.5266 419.816
16815 1 6.64588 -91.3924 -17.3966 428.897 -458.383 667.337 73.8321 296.082 111.15 -384.697 1171.36
17104 1 9.06356 -91.8175 -19.1703 458.003 -482.046 670.79 156.808 350.863 131.339 -404.914 1274.3
19786 2 7.60704 -92.0714 -18.4624 -246.38 283.403 -377.216 -51.9826 -167.991 -40.088 -66.5208 681.684
9800 2 10.1761 -92.8553 -18.8255 -227.482 262.188 -393.868 -63.2796 -140.786 -59.5602 -58.9253 656.546
19292 2 9.32193 -91.4693 -20.7371 -257.353 236.238 -273.81 -60.8995 -186.391 -116.107 -63.1787 638.607
19425 2 14.3013 -88.2764 -16.2571 -190.23 217.396 -167.979 -35.7487 -49.6007 -40.6968 -65.9095 416.854
1824 2 16.5561 -88.5224 -15.3966 -214.935 226.489 -195.837 10.2107 -59.6581 -60.9474 -71.6145 457.081
19405 1 15.0308 -89.0314 -15.0553 440.458 -461.279 409.217 40.0837 146.349 107.456 -395.239 943.212
14741 2 15.5474 -90.0967 -19.875 -259.066 218.976 -153.051 26.6625 -14.2594 15.1175 -69.8756 438.762
19505 2 15.0127 -90.618 -15.0859 -268.585 213.8 -201.772 12.307 -51.593 7.26726 -67.2494 462.091
19580 2 12.4811 -91.8329 -17.8941 -193.978 175.762 -218.733 -3.12623 -38.5737 -13.0122 -58.3214 389.197
24569 2 14.5001 -92.8008 -18.8647 -311.433 199.542 -215.451 59.4721 -67.0923 -53.4066 -62.32 503.92
17050 2 14.329 -92.8865 -16.0806 -332.403 216.336 -200.222 60.4864 6.61878 26.2766 -56.0016 509.148
19683 1 14.0771 -92.7603 -20.5409 551.783 -459.505 601.128 -41.1341 252.263 206.056 -401.908 1182.54
12302 1 13.7307 -92.9163 -17.517 607.637 -379.194 413.13 -105.265 32.6245 20.7246 -420.705 925.984
12364 1 11.7309 -93.0486 -18.8195 441.027 -446.41 703.477 41.9426 211.655 151.866 -418.603 1139.38
17205 2 12.5544 -93.1566 -20.1447 -251.211 255.285 -355.634 4.84895 -120.038 -101.199 -59.9385 627.976
17109 2 11.5663 -87.3298 -19.986 -174.446 190.615 -161.073 -6.9223 -38.0175 16.3365 -69.9019 365.851
14294 1 15.0097 -92.2819 -14.7127 608.545 -445.746 468.994 -83.3607 52.2549 -65.4228 -411.615 1012.8
21994 2 16.4563 -92.9686 -14.623 -310.205 272.208 -290.545 27.7344 -13.281 1.39441 -59.0083 575.312
16637 2 17.0323 -89.5925 -17.7683 -277.394 214.938 -89.8374 49.3197 -27.0475 20.4925 -67.1188 442.696
17077 1 16.9895 -90.4552 -19.1675 568.434 -377.971 173.228 -164.59 -12.198 -50.6176 -397 875.926
14433 2 22.273 -87.5425 -19.9789 -77.3805 79.2752 -156.33 152.6 -3.51111 -23.8187 -73.3458 338.735
2030 1 21.3375 -88.0053 -18.6858 263.57 -296.492 314.853 -285.121 -23.5261 135.837 -393.396 803.691
22361 2 21.6053 -88.0319 -15.3467 -128.509 161.86 -180.962 58.6703 -33.4869 -83.1437 -72.3949 369.764
22012 1 20.0285 -88.0736 -15.1107 198.745 -358.998 369.156 -95.9489 58.4058 128.942 -393.698 723.114
17179 2 19.8305 -88.2164 -19.1144 -163.856 178.245 -152.081 123.151 6.69781 -19.087 -69.5259 399.837
14416 1 17.5371 -88.5172 -16.7269 444.632 -432.349 272.981 -55.087 92.7769 41.3354 -396.175 829.505
27201 2 19.0735 -88.6458 -16.2982 -148.857 189.253 -163.245 53.6105 -31.6401 -44.8046 -69.1357 370.187
29298 2 21.8111 -89.4415 -18.2529 -170.592 161.198 -185.213 147.183 50.0255 -80.306 -65.5677 454.965
27070 2 18.0478 -89.73 -20.2141 -251.132 203.868 -144.635 110.3 7.892 23.5433 -71.4419 456.353
24409 1 21.6599 -90.9909 -17.9168 421.195 -324.946 412.293 -248.689 -163.937 122.909 -418.291 928.25
24657 2 20.1112 -91.388 -17.4089 -253.378 131.991 -170.724 111.284 47.2894 -51.8663 -60.6963 418.832
29301 2 17.7596 -91.7637 -18.6638 -331.218 178.531 -104.432 82.1251 30.5518 -9.80602 -64.3935 467.968
17190 2 21.7216 -92.0236 -19.1703 -262.745 188.107 -212.605 91.2614 72.2946 -17.12 -47.7008 474.047
12110 1 18.9313 -92.4874 -17.7796 679.787 -413.445 305.346 -163.108 -84.175 64.5655 -421.171 1019.6
21988 1 18.994 -88.4905 -20.4695 387.585 -450.975 333.354 -258.903 -5.43529 -28.1604 -393.696 929.628
16969 1 23.1595 -87.9712 -14.8387 347.097 -375.509 330.863 -66.4065 99.4229 216.143 -384.865 832.905
22104 2 18.2588 -93.0252 -16.4023 -356.697 254.456 -203.322 54.467 27.3885 -28.3736 -55.433 562.905
27157 1 18.0502 -92.7802 -14.8461 570.998 -486.932 554.679 -45.6016 -25.4456 53.0496 -414.155 1057.75
22071 1 21.1149 -93.527 -19.6388 717.465 -648.715 539.515 -36.505 -103.5 -0.596454 -460.052 1300.44
1928 2 22.8661 -91.1754 -16.8881 -174.259 174.639 -260.965 73.0666 69.1552 -94.9341 -59.539 465.725
24675 1 28.224 -87.846 -14.9518 350.305 -423.004 368.284 -329.639 -21.6877 181.106 -387.088 1018.84
24558 2 26.4002 -88.7677 -18.6246 -247.75 156.863 -142.428 61.8762 -82.8956 -179.347 -75.5872 510.673
29792 2 27.7719 -88.6869 -16.2075 -256.957 192.378 -154.402 119.369 -29.8242 -150.242 -74.0005 528.65
24504 2 23.7103 -89.4328 -15.1431 -170.602 198.662 -222.755 25.0784 -34.1482 -119.156 -74.4592 454.218
4599 1 27.6376 -89.3358 -17.6398 629.112 -415.979 319.082 -127.119 163.452 396.487 -393.385 1210.19
21898 2 25.6088 -90.7955 -16.44 -270.959 220.174 -303.745 41.4403 -56.2407 -140.436 -68.1175 576.365
29569 1 24.0561 -90.8484 -15.8628 373.538 -418.856 571.588 -77.735 14.5457 250.456 -398.361 1015.38
19688 2 27.7387 -90.8903 -17.5096 -369.22 300.867 -255.543 24.0712 -112.809 -148.244 -58.7223 701.149
27246 2 27.9184 -91.3456 -14.9598 -303.55 277.539 -374.793 37.0303 -68.1175 -67.3253 -64.676 644.803
29389 1 27.0362 -91.6499 -16.2657 727.074 -590.087 694.016 -33.6679 206.62 193.636 -410.566 1391.55
5 2 28.7127 -88.5817 -18.6102 -238.106 121.203 -140.86 40.7648 -70.3568 -134.521 -72.997 421.594
27095 2 26.4367 -93.0741 -15.7636 -403.004 395.83 -447.056 -29.5036 -100.215 -24.0377 -54.0445 842.461
2223 1 28.9189 -87.9059 -20.0764 341.225 -80.9322 309.708 -60.1956 178.3 60.4289 -372.652 532.074
29 2 24.361 -92.0193 -14.8152 -247.951 242.915 -359.884 38.5547 -62.7585 -85.4681 -66.9813 588.737
4740 2 34.6328 -87.449 -15.4458 -36.4986 38.2994 -273.047 -1.88165 -26.9576 -27.7704 -65.1434 289.392
27562 2 34.0234 -87.9119 -20.7735 -52.8186 5.59445 -199.046 -6.18768 34.1395 34.9185 -62.4401 201.508
29762 1 -21.9449 -86.9274 -16.711 68.7867 -53.494 318.065 109.784 -53.0978 35.384 -396.791 394.9
7113 2 -23.4641 -86.4578 -16.9306 -11.3128 -2.48367 -188.385 -40.5452 -15.9673 -14.1197 -69.6054 198.219
9473 2 -20.0693 -86.5966 -19.4895 -130.887 63.0334 -161.374 -73.0947 53.9222 51.4241 -75.0658 277.725
27633 2 -22.493 -86.4021 -20.052 -51.1255 7.62129 -164.542 -68.4379 18.4812 43.2188 -71.8918 208.942
9894 2 -20.8944 -85.7324 -16.8205 -52.6937 66.0288 -137.478 -49.0926 37.2724 -28.5962 -76.0843 212.604
4983 1 -23.3001 -85.0223 -20.1745 70.9751 -83.9177 286.901 43.2608 -59.4357 -93.8897 -386.491 383.04
26871 1 -20.1736 -84.3007 -16.5859 143.474 -249.298 311.36 56.2919 -85.3602 83.6959 -373.137 548.432
7685 2 -19.9523 -84.1396 -15.0132 -82.1398 147.27 -172.68 -29.7142 14.1632 -71.876 -81.3992 316.775
29648 2 -22.7703 -83.8996 -19.185 -35.4802 99.6368 -201.152 -21.8568 17.6155 42.3168 -76.6147 275.363
1640 2 -21.0823 -83.1712 -17.311 -22.9815 118.701 -204.556 -30.5493 29.4568 -12.1316 -80.4733 290.884
2608 1 -21.9551 -82.6308 -18.6821 50.7475 -263.529 409.948 75.831 -33.5471 -44.8862 -375.445 606.098
24612 2 -20.7436 -82.3406 -19.7257 -85.4302 106.892 -172.719 -22.7136 51.5941 -7.595 -81.7025 266.648
7419 1 -19.2264 -81.905 -20.2256 296.078 -261.36 131.153 48.9562 -134.055 -38.9665 -369.154 558.265
4955 2 -22.7271 -81.1821 -18.58 -3.40078 137.061 -207.256 -62.2957 -18.3475 27.2605 -80.5693 323.731
27177 2 -24.8202 -85.6413 -20.0694 -9.96103 -5.0712 -147.473 -1.35671 27.4316 55.1014 -71.4065 176.004
366 2 -25.0742 -82.4291 -15.5303 -53.2768 137.965 -192.739 -14.1832 -12.9702 -2.56781 -80.3312 289.521
7492 1 35.1077 -86.5382 -16.6866 52.832 -4.36396 389.89 46.0052 54.3852 16.9745 -397.378 390.186
2035 2 -18.6981 -84.4031 -17.4557 -125.354 183.811 -165.696 -61.5962 44.3911 0.178812 -83.0255 356.339
9899 2 -17.1231 -87.0051 -14.8606 -163.157 138.166 -166.168 -133.64 -40.2083 -27.3904 -84.8405 390.373
1944 2 -15.6115 -86.9011 -18.1287 -134.658 204.02 -219.642 -162.568 27.3877 37.5687 -78.73 486.289
29654 1 -18.6425 -86.5832 -20.2831 290.831 -238.503 286.057 254.242 -167.249 -126.824 -381.663 777.031
14780 2 -13.8405 -85.5512 -19.3752 -103.038 250.505 -245.21 -80.6031 1.85739 15.2884 -75.1314 464.404
4732 1 -15.0009 -85.4116 -18.2206 188.707 -529.964 527.285 203.09 -24.1286 -59.5219 -378.771 1005.27
2132 2 -18.1167 -85.1732 -19.9945 -191.351 187.133 -128.499 -94.7354 81.6066 57.3932 -78.3246 424.497
9869 2 -16.2296 -84.4229 -18.4998 -109.183 250.68 -231.775 -94.6143 41.3675 41.1449 -79.8756 475.094
12271 2 -14.1389 -84.6089 -17.1111 -102.96 273.816 -269.243 -105.93 -2.58607 30.9743 -77.8331 518.481
2524 1 -17.7413 -84.1285 -18.7582 273.006 -440.925 358.867 147.042 -142.102 -94.6239 -371.229 854.795
4900 1 -13.3749 -83.1731 -16.9781 183.532 -482.326 479.887 249.185 -12.3163 -129.174 -380.478 982.504
27167 2 -18.1708 -82.7882 -19.4332 -146.47 168.793 -137.218 -27.6689 77.5191 39.082 -83.3282 348.52
9814 2 -14.1156 -82.3464 -18.1638 -126.924 222.879 -206.369 -113.035 -14.7158 52.2204 -79.9288 451.248
7772 2 -13.4835 -82.3416 -15.6383 -87.1989 235.508 -237.74 -112.183 36.035 56.0931 -79.9269 475.892
7484 2 -15.858 -82.0477 -15.3395 -150.431 273.472 -239.382 -27.2474 57.617 27.7791 -89.5281 489.709
12289 1 -17.378 -81.6652 -15.4262 303.559 -515.913 431.498 -82.1696 -102.357 -45.1842 -352.575 922.256
7951 2 -17.8574 -81.4247 -16.9048 -132.131 197.941 -189.282 18.8932 88.8945 46.7831 -91.3869 403.015
9964 1 -14.7933 -81.2681 -19.1447 267.273 -339.268 257.993 122.086 39.1421 -74.1553 -372.312 654.337
9635 2 -14.8172 -81.6421 -20.7636 -120.538 129.684 -97.0944 -67.991 -9.47562 16.8649 -75.971 268.86
179 2 -11.4276 -86.2103 -16.3445 -88.3525 230.024 -250.149 -53.3902 28.4462 35.4677 -73.2244 440.236
29407 2 -11.2319 -85.3421 -18.7498 -97.7448 200.768 -264.973 -68.7384 7.08884 -2.8243 -74.3977 425.846
9795 1 -12.3277 -85.3429 -19.9887 245.556 -446.772 469.65 141.034 11.8721 39.1381 -386.804 865.663
12099 1 -10.8287 -84.9974 -17.2504 122.619 -425.958 526.577 97.7664 -75.3613 -74.5718 -390.692 864.937
4281 2 -9.24071 -84.8512 -17.0751 -52.218 189.824 -265.52 -10.3421 48.0453 45.8349 -70.0108 411.41
4622 1 -7.8375 -84.2526 -16.5929 131.242 -350.292 504.926 9.93359 -117.439 -74.9624 -396.242 781.016
11913 2 -8.30048 -83.7786 -15.1024 -46.6399 158.389 -283.973 -14.3044 39.5951 32.2792 -69.9267 394.292
2300 2 -11.8136 -83.6508 -17.0303 -47.5761 199.765 -250.858 -93.9179 28.8489 59.8004 -72.3517 438.712
2016 2 -7.42065 -83.0006 -17.5282 -83.5378 164.367 -251.718 9.70432 49.3003 22.2159 -69.1671 374.818
19902 2 -8.10926 -82.8702 -19.9059 -82.2594 158.881 -252.855 13.6838 50.5767 7.7185 -67.4332 369.869
2307 1 -7.27377 -82.0415 -18.7906 162.36 -347.569 525.753 -27.272 -71.7848 -33.8642 -399.888 773.639
14405 2 -7.41234 -86.1344 -19.127 -96.5222 231.404 -300.34 -27.5138 35.552 16.0439 -72.4189 471.964
7379 2 -12.3542 -83.8417 -20.6266 -136.854 165.44 -203.631 -99.803 -3.28094 -39.7792 -73.2457 388.186
12309 2 -5.13245 -86.9265 -18.7415 -104.638 237.992 -288.123 0.394449 79.9911 17.2821 -70.2361 483.758
11852 2 -1.63512 -86.3357 -16.178 -37.4772 242.693 -298.124 7.45618 65.6314 53.3291 -71.0243 490.998
6915 1 -5.9718 -86.0074 -19.7875 245.899 -495.101 623.258 -15.5457 -81.6011 -8.82423 -391.673 996.012
20025 2 -6.55398 -85.2067 -16.2908 -78.9058 209.444 -249.92 -4.19467 86.8671 30.7747 -68.7236 432.706
17276 2 -3.74792 -84.9108 -16.1341 -22.5031 205.602 -297.388 30.0762 82.6006 15.2295 -69.5375 462.79
12316 1 -5.21414 -84.9841 -15.4056 109.757 -414.535 585.993 -19.6323 -156.262 -23.3859 -395.379 909.626
1833 2 -5.09327 -84.7288 -20.0596 -117.033 220.965 -288.577 43.0987 46.1054 -4.53066 -68.3431 462.236
9616 1 -2.17926 -84.8377 -16.1902 55.9447 -432.571 606.088 -30.2473 -148.523 -21.9336 -389.927 938.309
12216 2 -2.45516 -85.2545 -20.5341 -22.8451 205.826 -338.92 15.5956 72.1493 -47.0886 -63.7149 497.462
17202 2 -1.55007 -83.8693 -17.3357 -78.4837 180.728 -229.066 -0.998875 75.9188 -16.8776 -72.141 383.467
17465 2 -3.55891 -82.7217 -20.292 -79.0121 158.741 -241.141 47.8958 59.1843 -9.5431 -65.6144 372.857
5003 2 -5.7764 -81.6189 -19.3321 -93.4308 165.386 -252.269 24.6301 31.6498 -7.41265 -67.321 371.908
17170 2 -3.62727 -81.6029 -15.236 -13.2697 99.0993 -267.311 -18.3118 32.527 -10.852 -74.4538 332.03
14411 2 -1.54222 -81.564 -16.5338 -76.2563 161.934 -243.264 -10.6315 41.2284 -50.855 -77.4009 370.949
7299 1 -4.22298 -81.4222 -19.5408 152.48 -297.797 453.949 -64.7888 -111.461 52.9478 -400.221 698.32
4722 2 -3.68055 -81.372 -18.0129 -48.9941 105.732 -224.425 15.3249 78.3718 -42.8415 -70.0484 326.339
12363 1 -1.41528 -86.4099 -20.7336 26.4757 -487.393 720.927 -50.2732 -131.254 88.1123 -404.337 1088.92
14603 2 -5.29038 -83.432 -14.9796 -30.4093 164.026 -295.53 1.42553 62.3889 12.133 -71.8731 414.448
11837 2 -1.72424 -84.1399 -14.7583 -32.7232 176.434 -336.721 -8.65329 52.7112 -17.9083 -78.6637 457.457
7204 1 -3.76041 -84.2273 -20.7841 182.24 -394.24 555.963 -87.2363 -126.758 68.9203 -404.077 879.047
14679 1 1.39047 -86.8448 -15.9317 373.52 -609.408 455.991 132.328 -96.0732 -64.6392 -371.54 1070.87
9428 2 1.29915 -86.6411 -17.5092 -186.334 274.938 -177.327 -22.0325 27.8998 18.7146 -76.7793 462.104
7423 2 -0.461383 -86.6864 -19.4585 -84.5602 208.061 -272.13 8.66122 55.8701 -23.7409 -69.0478 432.409
11934 2 1.54067 -85.2789 -15.4955 -186.248 277.808 -254.283 -54.4726 27.6724 1.19056 -83.6984 512.593
14872 1 -0.593065 -82.5462 -17.3923 199.94 -322.92 395.829 21.6047 -37.9321 132.047 -382.708 687.171
12002 1 1.55155 -83.7197 -15.3922 311.359 -429.817 474.056 59.2092 -1.36662 105.539 -365.338 860.429
2118 2 4.25861 -83.4206 -17.227 -158.877 189.431 -135.675 -0.633081 -70.509 -44.917 -77.8383 367.075
17084 2 3.01215 -83.0851 -15.1531 -142.213 236.644 -215.746 13.928 -19.7442 -68.5567 -82.4915 438.918
7400 2 3.60247 -83.4346 -19.9169 -149.282 170.519 -158.54 -34.8171 -68.4595 -11.2582 -77.1398 351.278
24400 1 4.46978 -83.0685 -15.6932 278.252 -459.413 371.095 -35.9744 67.4819 137.819 -376.679 834.136
21706 2 0.727361 -83.0079 -16.5725 -136.324 185.257 -204.242 -14.6801 -8.52342 -71.3322 -80.8613 382.096
9410 1 4.57615 -82.8641 -18.7787 322.642 -343.685 261.23 93.9122 126.658 -2.3103 -378.793 693.861
12414 2 -0.388433 -81.8017 -18.7553 -83.2668 142.882 -166.629 8.20395 -4.49288 -67.0328 -73.0001 301.144
17091 1 0.208272 -81.3291 -20.2149 210.195 -285.095 350.316 22.5154 -13.1885 107.837 -389.353 609.324
19524 2 1.23099 -82.5855 -20.5581 -125.939 168.823 -192.14 -30.0285 -16.8522 -31.0467 -72.8353 342.388
16983 1 7.25353 -87.3452 -18.9383 390.078 -444.317 293.509 -105.073 125.933 229.62 -378.305 929.429
14501 2 5.17009 -84.2525 -14.808 -124.376 244.365 -200.845 6.05424 -13.3538 -77.0107 -78.4978 434.11
12113 2 5.37114 -81.7382 -15.5673 -164.387 237.761 -190.497 13.9829 10.9577 -12.7636 -78.2348 417.541
11997 2 7.44318 -85.7417 -18.8439 -198.485 192.739 -130.661 36.2528 -34.4419 -54.4547 -78.0621 384.082
17013 2 10.3235 -85.7764 -18.0538 -166.742 123.156 -110.599 57.7771 -27.2224 -10.0742 -72.897 288.893
24493 1 8.47981 -85.7107 -14.939 288.978 -337.549 272.818 -108.605 22.5551 104.727 -382.328 672.672
26897 2 8.6521 -84.9209 -16.3453 -160.271 161.047 -106.846 41.3868 -11.9331 -42.8886 -74.9792 316.255
21901 1 9.65131 -84.4423 -17.5215 303.382 -293.75 241.842 -89.6706 16.8445 26.7429 -384.937 592.221
11810 1 7.43504 -84.1963 -19.3051 349.845 -327.034 212.172 9.84633 57.3778 5.99919 -378.192 627.859
19306 2 8.85158 -83.7164 -18.73 -148.764 167.096 -126.292 35.2247 1.26046 2.5659 -75.8076 311.322
22195 2 10.6997 -83.4447 -16.8911 -145.896 172.025 -130.013 43.104 -10.3007 -20.317 -75.4269 321.569
17096 2 6.10202 -83.3559 -18.9851 -160.917 171.913 -123.399 -42.2505 -55.6347 15.3639 -77.7989 339.183
17460 2 9.77963 -81.2165 -17.069 -137.382 208.76 -159.002 -2.98332 -15.9002 -30.062 -76.1963 362.3
24513 2 9.40004 -87.0369 -14.9015 -157.324 165.691 -158.223 64.6342 1.06832 -30.2877 -74.4708 346.293
21987 1 11.1994 -81.9183 -16.8112 288.763 -369.87 282.223 -27.1852 19.9839 64.0265 -381.48 667.268
17489 2 12.6958 -86.7546 -17.6525 -141.614 124.362 -115.175 -13.8383 8.43131 -6.91744 -66.7871 255.62
12183 1 13.8969 -86.7823 -16.6178 282.853 -297.371 300.741 64.3111 55.7223 88.9925 -397.22 626.77
17187 1 11.6781 -86.2441 -18.7707 272.899 -249.562 215.454 -38.488 66.2126 -23.1914 -394.722 515.23
24606 2 13.6988 -85.952 -15.2563 -130.325 166.345 -189.77 -21.6373 -71.6102 -57.1515 -73.5862 368.469
19403 2 15.1203 -86.0128 -17.2955 -147.197 146.908 -153.042 -15.5038 -28.3195 -41.8166 -70.8119 310.843
14896 1 16.6981 -85.6142 -17.2759 315.544 -334.358 307.41 -31.5588 110.587 97.7549 -390.035 696.776
17039 2 12.424 -84.986 -19.4923 -147.423 125.546 -102.843 29.3446 -31.6349 5.89775 -72.9779 264.613
19387 2 14.1428 -83.3926 -15.2011 -127.012 181.546 -191.64 2.00207 -57.3134 -33.5028 -76.6278 364.088
12324 2 13.9608 -82.9016 -19.5469 -118.99 126.493 -113.004 -0.42174 -44.115 20.0381 -74.6628 256.655
17019 1 15.1681 -82.1258 -15.5255 188.213 -310.417 405.471 -2.25452 73.0843 5.68818 -382.261 648.305
27090 2 14.9859 -82.0017 -17.17 -96.9334 135.109 -130.182 -14.7975 -31.8563 -7.74014 -75.0356 257.964
17286 2 12.5022 -81.8924 -17.7566 -191.424 165.032 -126.179 -5.40345 -20.8513 -13.0742 -76.9201 331.611
14882 1 13.9738 -81.7624 -18.3736 256.508 -278.259 222.242 39.4041 79.9735 0.084397 -383.969 540.99
27349 1 13.2182 -84.0005 -20.4303 248.569 -236.637 224.55 -52.4554 54.805 -42.0839 -385.357 496.917
22182 2 16.5801 -82.0188 -14.814 -88.4349 144.441 -219.53 8.82349 -43.0688 11.6804 -75.2005 328.868
24764 2 16.9227 -82.601 -20.3611 -108.529 128.202 -157.781 28.4717 -25.1912 -2.95896 -75.693 272.927
12223 2 17.1142 -84.5634 -18.367 -138.331 105.859 -110.818 12.2473 -41.2333 -31.0832 -72.8567 249.232
7115 2 17.2363 -85.1496 -15.8075 -149.351 179.692 -214.692 23.532 -53.5849 -39.8943 -74.2177 386.119
24378 2 17.4254 -87.0722 -17.4348 -206.035 199.962 -145.2 13.6367 -57.0011 -22.6327 -70.2726 394.56
17100 2 21.4846 -86.6499 -17.8857 -125.766 125.586 -162.951 62.861 -30.2879 -52.8567 -74.1283 311.28
19588 1 22.1339 -85.1055 -18.1041 161.401 -245.693 342.521 -15.8276 103.797 53.3121 -381.14 560.234
16817 2 18.4584 -84.5526 -20.517 -125.551 140.698 -155.86 14.4908 -3.12215 -13.1276 -74.1792 284.699
19500 2 21.0808 -84.0179 -18.1291 -88.0584 136.088 -174.027 -12.0281 -49.0039 -23.7133 -75.1316 293.644
15064 1 17.8487 -83.5529 -19.4266 236.781 -258.63 244.557 -59.8755 27.9922 43.2827 -386.279 517.755
19761 2 19.0046 -82.6992 -18.7969 -105.092 143.508 -132.787 36.996 -20.7652 -21.2628 -74.8864 276.062
24501 2 20.0044 -82.3703 -16.4938 -114.333 113.258 -159.976 15.9259 -57.1591 -17.3828 -74.56 275.205
27097 1 20.4315 -82.5548 -18.0083 213.813 -301.568 322.364 -33.6087 101.995 59.2339 -384.495 615.198
22075 2 21.5152 -81.5052 -18.4822 -95.1088 154.923 -182.739 24.3714 -49.8134 -22.5273 -76.2185 320.709
17213 2 19.3639 -86.5976 -14.9485 -107.554 189.748 -202.167 35.737 -31.5343 -56.9303 -71.5234 376.838
29601 2 22.9709 -85.275 -19.4289 -49.6326 96.9649 -178.064 33.496 -50.8079 -35.1718 -80.0424 267.647
14510 1 26.1729 -87.3632 -19.2684 343.691 -108.676 293.521 -88.3153 144.335 172.227 -361.581 599.451
19532 2 23.2092 -84.9035 -16.904 -109.323 116.998 -145.166 14.4882 -69.2474 -11.022 -77.2637 275.677
10 2 24.7914 -87.1636 -20.0835 -75.0818 14.0615 -165.17 86.2221 -54.0524 -27.2269 -83.3055 239.551
27371 2 27.4366 -87.0224 -20.4502 -192.103 33.2482 -157.757 28.7548 -67.7624 -11.1707 -91.3698 246.684
22367 2 24.0819 -86.8207 -15.4801 -159.044 179.626 -139.411 52.751 -75.5995 -105.494 -75.8635 409.041
2032 1 23.3726 -86.5113 -20.4525 64.8382 -79.2804 308.544 -187.573 39.5515 36.8269 -375.332 479.164
27299 2 28.5612 -86.4312 -15.5613 -148.858 156.856 -125.765 139.626 52.5197 -52.6117 -76.6466 402.492
14598 2 26.4559 -86.2565 -18.1621 -168.485 90.9082 -124.202 62.4077 -51.1785 -53.0356 -87.5889 292.813
29761 1 24.2093 -85.2248 -15.6924 263.808 -295.389 249.452 -99.3321 167.062 20.9769 -383.518 647.711
5162 1 28.9331 -84.8392 -15.7179 244.417 -243.335 180.101 -212.036 -98.2921 40.1857 -376.777 615.934
20152 1 26.6041 -84.7829 -17.4902 271.562 -267.846 227.479 -182.998 49.9344 -12.2188 -366.792 614.426
27079 2 25.6535 -84.7712 -16.2277 -103.711 126.287 -139.219 73.6311 -63.4551 29.1151 -77.8009 305.31
24611 2 28.1051 -84.4467 -17.0674 -134.111 141.451 -110.429 120.654 30.2695 3.54626 -82.6338 341.215
24972 2 26.0202 -83.7551 -18.6223 -121.955 182.578 -154.802 55.9177 -30.3739 7.6438 -84.9917 340.801
29667 1 25.797 -83.356 -20.1715 230.598 -392.619 359.238 -24.7035 8.47215 40.7255 -361.38 701.527
22267 2 24.3785 -82.9291 -20.6514 -81.4769 149.106 -187.092 -15.2502 -15.9166 -20.3507 -82.6127 302.285
29865 2 26.7485 -82.0191 -20.2325 -107.979 216.756 -175.866 32.9655 21.5588 4.25857 -84.6256 369.886
24710 1 28.2084 -81.5478 -19.866 218.139 -399.745 315.007 -129.164 -63.27 -17.9583 -365.612 716.968
29891 2 26.2484 -84.7667 -20.9748 -141.627 144.498 -173.486 23.1312 -21.5936 -29.4661 -91.6977 312.422
9669 2 28.9685 -82.8938 -19.4543 -109.103 173.733 -159.983 101.058 26.5147 42.3669 -86.553 367.57