ITEM: TIMESTEP
1120000
ITEM: NUMBER OF ATOMS
29952
ITEM: BOX BOUNDS pp pp pp
-2.5093087473165852e+01 3.5078381815859899e+01
-9.6749455251802715e+01 1.0673474959380272e+02
-2.0985542515027589e+01 3.4853395661184415e+01
ITEM: ATOMS id type x y z v_StrAtomXX v_StrAtomYY v_StrAtomZZ v_StrAtomXY v_StrAtomXZ v_StrAtomYZ c_PEAtom v_VMS
4248 2 -13.6797 -91.8264 -15.8608 -291.614 276.089 -263.944 -90.0525 -64.2287 59.5441 -69.1703 595.554
12116 2 -13.3255 -91.4853 -18.2725 -273.452 293.449 -306.835 -123.686 16.2568 68.2579 -79.9258 634.098
4527 1 -13.2415 -92.6149 -17.1033 652.762 -666.498 610.127 163.046 107.858 -102.615 -392.356 1353.61
4519 2 -13.6466 -94.1321 -17.6772 -362.172 417.451 -378.737 1.3692 -48.6437 -23.1025 -62.5699 793.54
9798 2 -11.1538 -90.764 -19.3526 -134.189 317.936 -353.66 -20.2261 62.2931 58.4635 -81.4507 612.32
9438 2 -8.98456 -91.4994 -16.4775 -115.53 228.191 -276.766 -35.2583 116.28 46.903 -68.6865 500.453
4899 1 -10.1805 -91.7934 -20.0795 149.408 -576.134 820.587 -18.2536 -121.405 -16.9149 -374.441 1228.79
9517 1 -8.31554 -92.8387 -15.9799 378.452 -479.201 581.483 20.1397 -241.155 -58.7068 -410.341 1066.28
17086 2 -9.87975 -92.9799 -19.1285 -111.53 257.048 -435.132 -2.04006 72.9379 6.87463 -77.8657 613.151
7017 2 -11.7514 -93.2706 -17.2149 -289.544 322.217 -335.393 -43.9499 20.297 22.9345 -70.2493 642.659
9608 2 -8.79223 -94.0523 -16.9282 -188.498 291.846 -364.229 7.65063 130.757 -17.3969 -59.8505 631.189
14621 2 -12.5385 -94.3535 -19.9172 -381.374 359.783 -424.262 -4.39528 98.4399 -31.8229 -74.8108 784.287
12202 2 -8.8045 -91.2609 -20.6903 -31.2367 285.109 -406.165 14.4079 22.911 -11.0562 -76.2182 601.512
4816 1 -12.1736 -94.458 -18.3232 754.611 -778.66 840.945 5.93135 -48.4235 99.8146 -395.678 1589.9
7300 1 -9.32403 -94.4002 -18.3878 324.236 -600.524 913.003 6.76669 -197.354 104.192 -403.194 1376.9
12319 2 -8.08362 -94.621 -19.3332 -102.736 271.555 -481.834 -2.37643 39.5408 -55.5038 -63.3948 663.062
24571 2 -10.7566 -95.202 -18.3376 -313.047 420.222 -486.854 2.69252 78.749 -90.5013 -62.7154 859.381
12367 2 -6.71283 -92.7641 -20.5813 -49.4399 220.553 -414.735 -24.6617 -0.748492 6.30742 -74.6265 553.994
19496 2 -6.75033 -92.627 -16.1392 -183.128 214.266 -301.992 -1.31503 62.1861 25.5276 -64.3075 482.543
14115 1 -6.62981 -94.2742 -19.9081 181.976 -449.379 867.338 34.4982 -7.41352 70.1772 -403.158 1148.72
14684 2 -2.06378 -91.5023 -19.8068 -130.572 206.58 -325.119 83.5903 95.0735 35.9606 -75.2861 518.72
17093 2 -1.40206 -91.2028 -17.4235 -60.0831 161.642 -321.979 43.3556 126.575 52.4114 -71.469 487.61
9712 1 -2.7748 -91.3529 -18.3356 180.223 -397.14 639.663 -67.2832 -142.549 -111.351 -388.801 959.914
16881 2 -4.43337 -91.7111 -15.3779 -154.89 199.855 -286.497 40.457 39.3584 41.4573 -63.02 452.289
9630 2 -3.38148 -92.8671 -18.0716 -163.714 232.745 -359.69 43.0025 62.1736 25.2887 -68.1085 540.69
14307 1 -5.39206 -92.9705 -15.3768 447.117 -456.712 622.215 -8.32966 -52.2313 -22.8085 -417.031 1007.86
17074 2 -1.59818 -93.9531 -20.2385 -238.403 309.666 -400.837 22.4099 121.945 27.6522 -63.6006 681.323
16917 2 -4.70168 -94.087 -16.3123 -244.365 284.176 -379.657 -7.43014 30.2561 -13.3167 -54.8473 610.419
14618 1 -4.27716 -94.1842 -17.9042 448.213 -569 748.302 -7.75876 -74.2728 39.0572 -414.29 1204.71
9885 2 -5.66749 -94.1858 -18.6854 -151.453 245.236 -385.345 -5.50321 35.3815 -22.3907 -63.3735 556.956
7095 1 -2.94241 -94.7647 -20.3804 581.029 -685.997 828.092 36.8498 -138.717 8.81031 -409.389 1428.8
12177 2 -3.45188 -95.2038 -18.9191 -301.165 371.988 -422.306 -35.7358 56.8279 -49.2313 -54.7243 755.081
20158 2 -6.13266 -95.311 34.8068 -178.886 314.282 -505.147 -17.1512 -23.8587 -21.0567 -57.0837 717.274
12185 2 -3.96899 -93.6481 34.8391 -205.623 225.161 -395.146 2.30158 41.1681 23.4807 -74.6157 556.679
11918 1 -0.855632 -92.5238 -20.2552 335.362 -472.3 707.983 -194.255 -247.568 -54.1641 -397.114 1182.37
12212 2 3.46709 -91.4806 -15.6989 -247.741 183.499 -318.066 -35.2727 18.197 -23.186 -86.3328 477.053
12086 1 0.152919 -91.4579 -17.7036 187.738 -329.598 609.367 -99.6586 -367.535 7.21617 -389.518 1048.2
12198 2 1.02787 -92.0534 -16.438 -135.953 201.804 -342.72 14.8298 174.593 -13.8468 -72.7995 565.113
12111 1 2.01755 -92.2061 -15.2433 456.504 -432.577 673.056 -0.575539 -160.202 33.1369 -380.025 1053.65
4424 2 0.195982 -92.459 -19.0241 -133.47 226.971 -342.494 68.522 174.935 1.95822 -65.8472 595.696
17006 1 4.4873 -92.921 -15.4921 622.82 -562.84 689.528 80.4474 37.2151 15.6356 -379.885 1230.3
24524 2 3.05169 -93.4873 -15.13 -324.806 351.412 -386.097 11.9181 37.7193 -19.5819 -70.2263 712.964
19508 2 5.52095 -93.0907 -16.735 -273.127 297.931 -359.888 -42.2205 -107.672 -11.7402 -72.1177 650.938
19227 1 9.0604 -90.669 -17.3686 393.397 -470.591 387.366 9.17587 164.642 -9.66736 -391.529 907.279
14443 2 5.91367 -91.3028 -18.4553 -188.467 193.891 -250.785 -40.939 -122.389 -122.169 -74.8404 518.314
22211 2 9.5934 -91.5943 -18.5544 -213.205 233.61 -253.555 -71.6147 -155.306 -34.9975 -69.5558 557.424
12321 2 7.71315 -91.4874 -16.8793 -182.478 206.28 -250.686 -7.08219 -109.642 -11.7557 -74.1523 467.901
16815 1 6.6745 -92.4595 -17.694 427.308 -487.266 654.045 78.58 315.116 92.0288 -391.6 1198.77
17104 1 9.18299 -92.9632 -19.4039 503.349 -498.351 644.687 132.848 332.699 133.883 -404.908 1266.39
19786 2 7.69395 -93.1229 -18.716 -265.273 286.853 -356.712 -52.4303 -175.146 -36.3552 -64.0867 684.054
9800 2 10.2344 -94.1827 -19.0471 -280.387 303.55 -397.752 -43.5066 -114.569 -63.6805 -59.0539 693.19
19292 2 9.37967 -92.6085 -20.8917 -285.533 227.953 -246.992 -56.7103 -145.368 -107.835 -64.3769 594.384
14741 2 15.7572 -91.0951 -20.1206 -249.563 225.951 -175.924 25.3136 -9.54688 6.67768 -72.5883 445.925
19505 2 15.2759 -91.635 -15.0001 -246.914 208.694 -216.255 9.29373 -31.9134 -16.613 -70.183 445.75
19580 2 12.4456 -93.0212 -18.0354 -228.172 204.928 -268.807 -23.419 -42.6258 -34.66 -64.658 466.398
24569 2 14.6797 -93.6857 -18.9239 -313.179 226.926 -234.724 29.2194 -60.139 -46.8765 -65.4343 524.879
17050 2 14.3199 -93.6308 -16.0396 -328.625 211.435 -236.367 35.6897 16.9205 35.2318 -60.9442 508.68
19683 1 14.1949 -93.7484 -20.5543 582.251 -507.845 587.287 34.1815 225.079 183.908 -400.985 1204.48
12302 1 13.7534 -93.8268 -17.4837 646.282 -448.803 474.668 -65.1447 8.47905 40.022 -410.862 1028.83
12364 1 11.8394 -94.2888 -18.9212 572.335 -555.073 755.813 25.2367 147.014 154.058 -413.458 1284.34
17205 2 12.6777 -94.3729 -20.2926 -312.493 293.074 -371.337 7.6509 -98.4717 -69.9996 -60.4004 670.652
22085 2 12.7876 -95.1129 -17.864 -369.907 354.452 -381.422 11.3396 -29.0609 -50.231 -54.1474 737.332
29496 2 14.085 -92.3193 34.5542 -229.188 196.308 -249.896 -50.6856 -66.569 -93.3731 -73.6296 487.282
17077 1 17.1288 -91.3916 -19.2546 501.338 -413.894 282.054 -125.685 -18.1719 -36.4111 -394.448 858.719
16637 2 17.0869 -90.6711 -17.9103 -240.305 208.499 -140.044 41.7452 -9.28816 5.13734 -70.5505 414.784
24409 1 21.733 -92.1241 -17.9339 396.115 -362.533 500.821 -203.899 -186.61 132.375 -422.882 973.503
24657 2 20.2189 -92.4137 -17.51 -250.021 181.078 -218.348 88.4959 58.9772 -37.9949 -60.0437 459.843
29301 2 17.7928 -92.8041 -18.7256 -300.263 217.901 -151.443 57.6926 18.7137 0.373742 -64.3518 473.882
17190 2 21.8892 -93.1241 -19.2703 -272.651 223.727 -259.372 80.5273 70.0009 1.35985 -43.4212 523.58
12110 1 18.9273 -93.4559 -17.8202 635.015 -485.065 388.039 -128.719 -74.2161 43.0226 -421.329 1053.91
22104 2 18.4121 -94.0062 -16.3624 -373.885 275.895 -239.49 20.188 20.5593 -39.2049 -54.7423 600.042
22071 1 21.1498 -94.6559 -19.6471 748.664 -712.664 623.77 4.03923 -129.135 -35.111 -465.301 1422.09
19859 2 19.7559 -94.519 -18.664 -417.244 338.862 -264.498 32.7727 65.7355 -3.89173 -45.1464 704.107
26904 2 22.1185 -95.738 -19.4642 -354.761 463.83 -383.288 -67.8138 52.716 25.068 -19.1721 847.511
27157 1 18.0985 -93.8365 -14.8229 582.535 -538.283 591.052 -22.2658 -87.5757 94.9457 -417.359 1147.78
1928 2 22.8996 -92.3641 -16.8578 -157.419 182.349 -316.145 37.0153 84.9977 -101.633 -56.144 501.336
27070 2 18.2204 -90.6865 -20.2295 -237.42 215.353 -166.521 100.251 5.42113 8.85085 -70.5746 456.512
21898 2 25.5459 -91.9086 -16.5058 -252.61 219.48 -314.841 31.904 -39.3171 -183.561 -63.6408 604.066
29569 1 24.0613 -91.8662 -15.8508 320.279 -391.553 635.094 0.868049 -16.1428 315.023 -404.991 1062.27
19688 2 27.6642 -92.089 -17.6261 -377.702 292.65 -279.529 22.1603 -105.12 -162.041 -54.6522 711.755
27246 2 27.8587 -92.4334 -14.9153 -318.035 278.542 -373.146 56.7827 -39.8476 -78.4844 -63.663 651.717
29389 1 26.9648 -92.7369 -16.2919 723.369 -592.139 719.348 -31.1793 175.992 237.762 -415.631 1410.93
27095 2 26.3969 -94.1908 -15.7756 -404.855 392.282 -460.285 -26.3146 -88.9362 -36.4222 -52.3206 844.08
29 2 24.4977 -93.0128 -14.8383 -233.613 236.385 -397.313 6.28773 -51.8507 -124.368 -64.7852 615.809
24504 2 23.5426 -90.5317 -15.1912 -157.816 183.891 -254.624 12.3834 -14.6753 -144.203 -70.063 471.916
4599 1 27.6421 -90.5031 -17.8504 623.578 -429.602 402.284 -106.808 154.225 415.812 -402.369 1244.74
2327 2 -20.8824 -89.668 -20.7464 -172.343 116.832 -229.437 -69.6638 5.21278 36.1854 -64.6787 349.229
9799 2 -21.5542 -89.1212 -17.9667 -108.496 73.4269 -225.757 -67.1783 -17.1947 -2.96912 -64.7213 287.456
4993 1 -21.299 -88.6188 -19.5103 199.756 -102.608 434.093 161.885 20.1441 -61.5647 -394.913 555.339
7205 2 -21.8437 -88.62 -15.0822 -24.5584 10.0332 -219.641 -54.5111 19.772 -38.7322 -66.9491 246.15
29762 1 -21.983 -88.2756 -16.6553 103.704 -39.8646 401.35 116.156 5.31405 62.4641 -397.857 451.89
7113 2 -23.6122 -87.9622 -16.8523 -14.4338 -4.14988 -225.365 -57.0761 -36.0321 -35.118 -68.1093 253.249
9473 2 -19.9609 -87.7372 -19.576 -110.395 72.5847 -197.13 -90.3535 19.4021 43.7622 -76.8093 297.054
27633 2 -22.3788 -87.5036 -20.0155 -41.6365 23.8394 -215.683 -80.2995 14.7757 17.8688 -72.4319 258.712
9894 2 -21.1257 -86.9209 -16.8227 -59.6228 46.4397 -177.787 -59.0125 20.2413 -24.317 -74.3132 226.264
4983 1 -23.3022 -86.2072 -20.3244 58.7898 -79.6458 319.455 72.3816 -37.5428 -42.0676 -386.881 385.293
26871 1 -20.4151 -85.4826 -16.635 131.724 -256.588 361.609 46.3878 -77.7832 23.9928 -383.524 565.008
7685 2 -20.164 -85.4211 -15.0225 -88.8305 120.366 -174.643 -10.9 42.5689 -31.3431 -73.7019 278.96
29648 2 -22.8566 -84.9877 -19.3893 -45.4943 82.3645 -207.082 -9.36187 16.4766 9.10315 -75.7725 253.86
27177 2 -24.8748 -86.6835 -20.0708 0.00155593 -10.2662 -161.722 -6.36203 12.3654 28.6273 -71.8831 166.247
7492 1 34.9933 -87.6559 -16.689 53.7973 -12.6851 433.072 87.9448 93.8721 77.5289 -397.01 491.076
6926 1 -14.0514 -90.6631 -14.7958 429.135 -357.034 418.011 203.256 109.577 -129.086 -390.7 905.202
29775 1 -14.7776 -90.372 -20.9505 428.452 -410.455 318.667 317.279 -214.054 -90.422 -376.95 1042.93
2035 2 -18.9143 -85.6635 -17.38 -109.615 178.271 -187.084 -44.8842 40.7283 12.2325 -78.2871 350.216
2196 2 -15.5736 -90.3924 -19.5292 -163.733 188.387 -195.337 -176.116 46.2425 50.2317 -74.842 493.104
29654 1 -18.5465 -87.9291 -20.2381 263.072 -191.221 324.096 220.264 -122.647 -89.8784 -379.993 672.858
4495 2 -13.343 -89.9993 -20.3908 -205.928 275.745 -198.546 -89.7967 110.832 35.7379 -80.9555 541.646
7411 2 -16.8666 -89.8959 -17.0284 -171.273 135.147 -176.63 -123.401 -3.95965 7.88495 -72.7544 376.139
9700 1 -17.0464 -89.6739 -15.4459 364.721 -212.757 334.295 225.338 93.2012 -54.5804 -383.608 710.046
27087 1 -16.458 -89.3736 -18.5023 265.964 -284.943 383.966 311.115 -72.9026 -60.7632 -382.822 836.558
7410 2 -13.3226 -89.3 -15.422 -170.015 165.691 -200.542 -54.1568 -52.0193 58.2963 -76.5021 388.575
29673 2 -17.6743 -89.0387 -19.4193 -117.645 96.6951 -197.99 -138.497 66.1412 40.8282 -75.0806 381.166
1944 2 -15.6092 -88.0381 -18.1844 -113.383 177.335 -229.467 -99.2859 24.7842 27.9837 -79.566 406.823
14780 2 -13.8261 -86.5637 -19.3896 -105.352 239.782 -244.098 -29.0819 14.5118 12.746 -77.8922 435.787
4732 1 -15.0053 -86.5523 -18.1972 171.497 -489.72 530.262 106.879 -36.7649 -66.8218 -378.154 924.587
2132 2 -17.782 -86.5645 -19.8242 -127.234 179.26 -179.361 -86.7162 71.0836 36.8097 -77.7193 392.956
9869 2 -16.3126 -85.6127 -18.2643 -86.4306 241.057 -252.441 -51.2509 45.945 42.8163 -77.7714 457.04
12271 2 -14.1562 -85.7609 -17.0636 -120.629 253.706 -247.112 -61.4982 0.917623 40.1765 -77.4914 468.682
2524 1 -17.873 -85.4938 -18.6377 230.288 -432.621 439.499 113.16 -124.561 -80.5132 -377.738 852.241
9899 2 -17.0563 -88.2287 -14.875 -170.104 112.548 -147.506 -92.7662 -26.5749 -0.268276 -81.0167 319.297
2278 2 -15.6554 -90.3289 -14.7939 -189.917 155.637 -218.43 -123.254 -75.3015 56.8993 -74.3119 449.857
4900 1 -13.318 -84.3591 -17.1504 259.178 -471.351 440.599 195.082 -12.7701 -170.842 -380.924 949.389
7201 1 -12.6044 -90.2183 -18.971 388.112 -609.93 548.026 154.529 -101.832 -122.906 -370.567 1152.96
9506 1 -9.3521 -89.9013 -16.3955 167.623 -421.061 511.741 84.4526 -167.711 -52.4991 -392.021 884.075
27068 2 -12.6239 -88.9932 -17.9167 -151.299 253.009 -277.512 -51.9043 20.6918 43.0137 -81.0604 495.319
29566 2 -10.9342 -89.7452 -16.2531 -110.018 199.313 -258.288 -38.7252 46.2759 54.6949 -74.048 428.29
5069 2 -8.61684 -89.3997 -15.0543 -107.726 178.081 -230.24 -43.6301 89.1 18.8273 -67.8275 402.867
16822 2 -9.01638 -89.0384 -17.747 -59.6387 224.078 -299.378 -18.9442 41.7511 16.603 -75.0942 461.651
7117 1 -12.1545 -88.7431 -16.3705 266.67 -432.285 478.09 59.7486 -13.9941 -82.1516 -380.466 844.129
19117 1 -8.25718 -88.6521 -19.1369 98.7283 -468.144 675.665 29.2815 -73.5159 -5.81024 -381.669 1000.07
19703 2 -9.20114 -88.4 -20.4501 -64.409 255.044 -322.573 -31.7683 54.7793 -35.4312 -76.2176 516.688
179 2 -11.4223 -87.2765 -16.2953 -116.232 223.826 -235.027 -19.9885 29.0062 45.7369 -75.0783 424.437
29407 2 -11.2754 -86.5195 -18.7726 -111.713 203.771 -260.284 -28.2429 17.6344 -7.91459 -79.1001 414.716
9795 1 -12.3181 -86.3963 -20.0433 283.268 -431.456 450.406 43.4764 -25.7029 50.1203 -378.097 820.616
12099 1 -10.8481 -86.1053 -17.2265 167.899 -395.692 489.615 41.4682 -84.1183 -86.0833 -383.807 806.888
4281 2 -9.25895 -85.8537 -17.0792 -55.8877 180.218 -249.046 10.9633 57.8864 56.6745 -72.9223 398.386
4622 1 -7.81223 -85.3409 -16.6075 111.198 -357.04 503.376 -21.4088 -130.245 -107.243 -392.151 802.155
11913 2 -8.23921 -85.0036 -15.0352 -56.0588 158.534 -252.215 -6.48772 36.9055 46.9014 -70.3041 370.719
2300 2 -11.7685 -84.7774 -17.0984 -84.2687 192.986 -222.352 -57.6951 26.2186 78.502 -74.7187 405.903
14405 2 -7.36693 -87.2101 -19.1892 -69.7007 220.526 -363.288 -3.53161 73.7449 -10.3465 -75.1918 521.828
7379 2 -12.3352 -84.8547 -20.6342 -152.981 162.032 -186.734 -63.0274 11.5679 -50.3691 -77.0192 361.85
12006 2 -11.554 -87.3121 34.6909 -171.995 251.181 -213.806 8.54552 55.9139 -23.9631 -76.6476 458.083
17135 2 -4.14181 -90.5027 -18.4503 -78.9823 219.755 -302.117 -19.2014 67.5519 29.3289 -73.6738 472.3
7053 2 -6.87355 -89.6166 -18.8469 -67.788 229.591 -349.79 -9.69272 59.5861 14.9044 -75.6934 513.245
17008 1 -4.18857 -90.1384 -15.4228 232.572 -358.383 528.475 -80.3757 -123.175 -120.016 -399.035 848.387
16617 2 -5.40926 -89.5899 -16.4701 -103.879 195.156 -256.804 10.6512 79.1871 30.4436 -70.6111 424.819
19501 1 -5.37928 -89.5079 -18.1136 171.559 -433.427 568.631 49.6743 -170.346 -21.9508 -387.813 927.253
14431 2 -2.8803 -89.4896 -15.9822 -65.1237 170.083 -275.379 19.1028 75.5292 80.7567 -70.2204 432.154
7024 1 -1.47784 -88.9761 -15.268 81.5504 -385.915 557.595 36.9954 -137.029 -92.6319 -391.337 868.249
12309 2 -4.99617 -88.0915 -18.6747 -89.838 233.317 -290.306 -1.24337 79.0966 13.8585 -73.2833 478.276
11852 2 -1.43836 -87.4567 -16.0649 -71.3097 267.497 -293.879 -20.3517 63.3119 33.7478 -73.8856 506.379
6915 1 -5.84055 -87.1961 -19.726 183.165 -480.739 640.537 -29.7978 -94.6945 21.5076 -386.482 992.251
20025 2 -6.5236 -86.275 -16.4267 -60.6517 207.528 -260.458 4.53758 90.9213 46.353 -70.8586 443.547
17276 2 -3.73889 -86.181 -16.1193 -79.92 231.711 -289.327 29.5493 92.2942 17.684 -73.5041 485.113
12316 1 -5.23096 -86.0435 -15.4625 132.212 -418.632 567.612 -18.725 -160.548 -53.1703 -391.264 905.373
1833 2 -4.94307 -85.9089 -20.0045 -103.17 245.668 -285.335 40.0466 54.9051 -26.7601 -71.9339 484.171
9616 1 -2.18892 -86.0455 -16.0831 145.629 -479.163 579.287 -4.5922 -154.726 -22.2313 -382.892 960.592
12216 2 -2.35034 -86.336 -20.8296 -41.412 249.733 -333.739 -0.585708 45.8646 -41.5738 -67.9413 516.553
17202 2 -1.49697 -85.1387 -17.187 -111.217 202.455 -221.938 -16.6763 69.0833 -9.78445 -76.5322 401.022
14603 2 -5.31255 -84.4899 -14.9351 -43.5612 163.031 -277.947 -6.65173 54.5553 34.2677 -73.6777 398.276
12363 1 -1.34136 -87.6288 -20.7502 51.7468 -482.781 708.838 -37.8718 -72.6011 73.8415 -396.005 1051.28
7204 1 -3.72525 -85.4064 -20.8474 211.577 -471.703 547.696 -49.1377 -135.55 111.856 -394.745 953.631
17001 2 0.753824 -90.0886 -18.3585 -104.119 143.586 -239.314 52.6035 117.338 -47.9108 -76.3121 411.845
14694 2 3.81876 -90.0135 -19.0314 -114.835 116.675 -178.273 2.50831 -24.0588 -153.869 -75.8945 380.907
11929 1 3.98868 -89.9547 -15.1475 447.646 -472.642 430.242 40.9118 -53.5252 -12.6811 -359.357 919.41
11919 1 3.29637 -89.4816 -20.506 156.493 -169.653 422.037 -92.4978 56.432 246.176 -387.902 693.196
6924 2 0.22044 -89.1432 -15.5513 -87.1952 220.583 -270.997 -59.2566 77.8823 30.6644 -77.1124 465.438
7327 2 2.82859 -88.8928 -15.4831 -202.071 285.084 -226.67 -56.1376 45.2176 4.3566 -84.867 515.319
19397 2 2.12974 -88.4593 -19.96 -95.1051 149.456 -223.754 42.8493 -23.1628 -94.741 -75.1925 376.654
9243 1 0.950484 -88.5714 -18.8762 232.353 -377.434 394.028 -44.7602 -88.8435 107.822 -384.776 749.088
14679 1 1.43456 -88.1958 -15.9296 315.628 -587.533 449.747 130.392 -137.119 -51.3425 -374.225 1034.48
9428 2 1.40138 -87.896 -17.5194 -155.047 259.873 -172.159 -27.6215 33.6538 -7.17814 -76.2794 430.572
7423 2 -0.482819 -88.0365 -19.404 -82.934 221.67 -263.457 21.2769 49.2698 -23.7321 -72.0417 436.682
11934 2 1.39738 -86.6468 -15.387 -154.186 279.311 -249.762 -74.3861 44.7774 15.8606 -81.9526 511.719
12002 1 1.47945 -85.0032 -15.3565 250.452 -407.431 435.637 122.772 -32.7039 66.2606 -367.239 806.556
7400 2 3.84106 -84.5373 -20.0296 -119.314 133.314 -162.916 -63.8486 -63.444 -2.40821 -79.4198 317.899
11914 2 4.93956 -89.861 -16.4001 -180.862 211.872 -177.382 11.3577 -57.9758 -53.4715 -83.5161 414.649
14485 1 5.09646 -89.9852 -18.0645 317.993 -331.882 347.48 11.161 176.957 285.225 -376.476 883.597
2118 2 4.19024 -84.5163 -17.3082 -146.495 167.9 -122.398 -36.2165 -53.599 -33.4015 -79.5927 328.252
19784 2 9.92884 -90.4325 -16.096 -182.563 214.033 -183.423 4.38 -21.5019 20.2738 -69.266 400.385
14501 2 5.39122 -85.4823 -15.0085 -127.87 227.628 -198.262 -33.2886 -38.4542 -91.9 -81.207 435.264
12010 2 8.4415 -89.2913 -18.1188 -195.512 241.278 -174.34 18.7349 -62.1548 -50.8397 -75.2502 449.87
12503 2 7.27761 -88.9033 -20.5438 -186.204 181.246 -129.921 -40.5457 -105.271 -116.2 -77.2498 442.935
14592 2 6.00233 -88.678 -18.2847 -168.442 222.709 -142.457 29.3306 -74.7001 -111.916 -78.0553 447.668
16983 1 7.44247 -88.3871 -19.0032 373.118 -441.593 290.196 -18.5952 105.475 185.218 -379.337 860.466
11997 2 7.45956 -86.7997 -19.117 -180.237 181.478 -115.319 -5.51775 -25.3837 -46.4508 -79.809 346.507
17013 2 10.448 -86.7862 -18.4612 -134.753 134.532 -113.921 11.0925 -62.8211 -16.0127 -77.1955 283.401
26897 2 8.70543 -86.294 -16.5606 -167.853 156.116 -97.3718 7.74565 -38.1558 -51.859 -79.7472 315.762
21901 1 9.64672 -85.6142 -17.6575 277.394 -266.646 221.15 -16.1139 81.8874 53.036 -376.644 545.782
11810 1 7.4366 -85.2121 -19.4442 312.041 -281.836 186.569 49.352 59.0109 32.4271 -373.656 561.094
19306 2 8.76072 -84.7697 -18.7104 -140.208 150.003 -106.269 -10.2263 -29.1589 -22.5256 -78.7608 282.686
22195 2 10.597 -84.4966 -16.978 -135.227 146.277 -124.841 15.6372 -45.334 -29.4262 -78.9523 293.13
24493 1 8.57893 -86.9283 -15.0659 303.386 -343.275 291.146 -43.8731 96.8687 117.389 -371.999 696.901
24513 2 9.44892 -88.2658 -15.0281 -178.59 187.901 -164.675 29.687 -45.0894 -37.7404 -79.0458 377.393
17096 2 6.17844 -84.3972 -18.9627 -152.757 139.269 -110.759 -49.6633 -52.8584 15.6778 -80.4618 302.155
19405 1 15.211 -90.0559 -15.0555 387.438 -440.068 422.745 26.9098 107.219 120.786 -390.431 891.996
1824 2 16.7063 -89.5433 -15.4549 -191.344 205.002 -215.769 8.01789 -31.5871 -66.4287 -73.9524 428.71
19425 2 14.4508 -89.2281 -16.3011 -170.377 222.49 -185.246 -42.13 -39.7194 -51.5758 -70.8529 422.428
17109 2 11.809 -88.5163 -20.1661 -190.812 225.09 -153.793 -26.7358 -53.0627 6.14737 -73.9285 411.89
17489 2 12.6089 -87.8682 -17.7059 -138.352 160.618 -130.978 -26.5458 -34.8118 -16.5366 -72.4832 306.272
12183 1 13.8337 -87.8271 -16.6981 262.05 -354.792 334.09 99.3522 78.5092 97.3481 -389.148 711.796
17187 1 11.8205 -87.373 -18.9846 318.552 -330.509 242.637 13.1165 106.115 4.44406 -384.844 641.97
24606 2 13.443 -87.0692 -15.3283 -125.144 174.358 -171.211 -36.5977 -81.3595 -43.333 -74.7843 367.6
19403 2 15.0346 -86.9235 -17.2577 -136.732 168.756 -181.977 -36.7641 -22.9968 -50.7085 -74.6971 350.068
14896 1 16.5896 -86.5576 -17.3285 284.841 -334.056 352.639 16.6255 55.2452 123.98 -386.718 696.913
17039 2 12.5034 -86.0216 -19.6285 -166.104 150.546 -109.007 17.9295 -45.1374 -22.8669 -77.8167 306.746
19387 2 14.4143 -84.7262 -15.0125 -124.366 158.535 -179.717 -10.189 -54.7318 -17.5093 -75.1618 330.111
27349 1 13.0792 -84.9277 -20.5643 284.976 -277.367 231.444 -46.1223 62.7146 34.216 -376.293 557.391
12223 2 17.1703 -85.5043 -18.3523 -131.859 133.211 -130.091 13.2943 -41.1084 -67.3182 -73.5838 298.315
7115 2 17.1544 -86.3385 -15.8452 -132.091 178.429 -215.07 4.72673 -3.63994 -36.9093 -73.5105 365.06
29298 2 21.813 -90.5025 -18.1273 -156.799 151.925 -209.669 135.054 47.1449 -108.989 -65.2127 459.837
27201 2 19.0566 -89.6232 -16.4997 -143.138 167.682 -184.356 41.4352 -12.4936 -50.6992 -71.6706 352.774
24378 2 17.2735 -88.0598 -17.6342 -178.847 194.496 -168.47 3.57174 -32.7361 -45.2458 -72.9469 380.807
14416 1 17.5596 -89.4445 -16.9146 391.023 -392.961 352.716 -34.0604 40.8566 64.4825 -389.324 779.12
21988 1 19.1823 -89.4658 -20.6276 363.393 -423.409 352.337 -230.043 24.5646 52.951 -394.875 882.871
22012 1 19.8805 -89.2259 -15.1425 210.221 -338.296 431.424 -86.9687 10.1452 115.758 -391.368 730.982
22361 2 21.4244 -89.013 -15.3841 -119.327 158.103 -205.041 51.586 -29.8015 -86.0715 -71.4753 375.455
17179 2 20.0098 -89.063 -19.3272 -140.146 155.26 -171.78 120.469 -0.419517 -50.2994 -70.3407 385.667
2030 1 21.4734 -89.0692 -18.7019 234.454 -242.67 369.535 -297.019 -18.9456 175.929 -393.474 817.884
14433 2 22.5608 -88.8499 -19.9813 -92.7636 67.2138 -166.952 164.806 7.72936 -60.4189 -71.3241 368.21
17100 2 21.6734 -87.6692 -17.9419 -86.4024 111.113 -185.528 86.312 -35.823 -74.7048 -74.0319 333.705
19588 1 22.3103 -86.2277 -18.136 154.705 -218.294 379.178 -43.8538 87.8803 92.428 -382.845 572.548
16817 2 18.6628 -85.7327 -20.3918 -101.307 136.162 -162.864 7.81725 -14.4034 -59.5147 -74.0003 293.65
19500 2 21.1439 -85.0694 -18.1956 -78.6566 128.901 -190.614 -7.17161 -40.3027 -46.7399 -72.9537 300.721
15064 1 17.9305 -84.626 -19.4593 209.053 -249.608 267.656 -41.0989 36.4402 120.023 -386.323 541.249
17213 2 19.1458 -87.8061 -14.9075 -128.66 177.834 -215.201 23.0977 -5.93483 -44.9623 -72.1388 368.406
16969 1 22.9358 -89.1567 -14.8769 295.56 -379.886 398.872 -46.5637 64.0177 227.469 -393.01 843.035
29601 2 23.2012 -86.4952 -19.4854 -48.9369 59.8168 -188.799 43.4937 -24.6693 -53.4586 -79.7697 250.347
19532 2 23.2578 -85.9759 -16.898 -103.234 98.9611 -161.036 31.4168 -67.4519 -19.7555 -75.118 271.463
29792 2 27.7332 -89.84 -16.4103 -269.185 203.515 -178.154 121.68 -21.9067 -162.589 -70.031 560.237
24558 2 26.4424 -89.7959 -18.7361 -213.673 135.746 -204.346 36.1429 -74.1126 -192.444 -71.6706 500.423
5 2 28.7442 -89.67 -18.6581 -239.925 133.496 -176.621 45.7983 -67.6872 -139.692 -69.3774 445.411
24675 1 28.2473 -89.0903 -15.0389 400.226 -449.116 399.192 -323.847 -52.2143 218.892 -393.686 1089.52
14510 1 26.2423 -88.3728 -19.329 261.806 -98.7896 398.639 -64.2841 120.92 193.121 -369.429 605.18
10 2 25.0375 -88.0777 -20.2839 -52.4132 -3.00448 -188.018 61.2512 -20.8007 -54.1273 -81.2382 221.071
27371 2 27.5776 -88.0117 -20.4721 -145.552 29.3711 -190.16 19.8017 -74.15 -27.1274 -86.2915 245.499
22367 2 23.9069 -88.0154 -15.4551 -137.143 171.812 -169.869 61.8719 -64.5926 -109.211 -71.361 407.943
2032 1 23.522 -87.6449 -20.5328 73.9047 -25.8236 318.405 -183.815 -2.94267 84.3462 -378.42 465.663
27299 2 28.811 -87.7387 -15.6063 -152.226 145.551 -148.69 141.793 56.7101 -79.5413 -73.6461 420.208
14598 2 26.4195 -87.338 -18.1591 -123.094 76.8213 -177.157 56.4294 -34.8376 -62.5129 -83.849 280.382
29761 1 24.1715 -86.4835 -15.6149 230.364 -254.254 283.266 -116.976 139.632 26.7731 -391.44 604.138
20152 1 26.532 -85.9646 -17.3021 189.692 -211.263 300.361 -166.378 16.5588 29.7356 -374.348 551.277
27079 2 25.7109 -86.1654 -15.9682 -79.272 101.144 -137.031 68.0984 -36.8271 -0.624133 -73.3924 253.552
24611 2 28.0488 -85.7423 -16.9582 -101.018 102.855 -130.111 111.252 41.68 -20.5205 -79.6404 303.229
24972 2 25.9703 -84.9647 -18.441 -99.4298 112.62 -195.87 42.301 -7.23208 7.53944 -82.0043 283.57
29667 1 25.8184 -84.4997 -19.9578 152.156 -304.917 401.07 -47.341 -8.4472 69.4837 -368.483 637.234
5162 1 29.033 -86.1569 -15.755 213.82 -190.413 241.458 -206.217 -105.079 103.75 -381.335 606.905
2223 1 29.0642 -88.9646 -20.0221 325.422 -105.666 377.195 -65.6037 189.931 94.9518 -382.141 599.18
29891 2 26.2104 -85.8056 -20.8586 -88.2889 104.36 -196.131 26.6351 -8.66319 -36.9492 -87.2867 275.624
4740 2 34.3445 -88.565 -15.493 -49.5111 51.6684 -278.612 -8.89948 -54.0265 -58.7266 -64.2976 324.416
29289 2 34.2583 -87.9544 -18.0781 -38.4286 -1.16632 -203.181 -17.3157 6.09735 12.3416 -65.5932 190.103
9928 1 34.0762 -87.6354 -19.6184 8.26001 51.7829 309.927 -3.32997 -48.2234 -87.6083 -399.521 331.366
2515 2 30.236 -87.9336 -19.956 -53.004 31.2373 -172.657 67.8355 -46.9959 22.042 -77.0411 231.044
4823 2 32.6348 -86.9547 -19.6758 2.4921 -1.36837 -147.665 18.4012 25.1245 69.1066 -72.5481 198.038
9724 1 31.1332 -86.601 -19.7781 19.6469 -98.546 298.135 -132.179 -9.3376 -141.517 -379.509 487.029
128 2 30.6208 -86.0202 -15.6767 -67.4192 63.3661 -147.278 90.7293 22.8871 -67.5792 -77.7403 271.835
27012 2 34.8941 -86.1013 -16.4463 -24.592 57.3447 -224.864 -34.1878 -49.7024 -20.7852 -74.5548 274.673
1781 2 30.4303 -85.8477 -18.5251 -39.0409 82.0931 -144.983 93.4513 26.5453 39.4877 -79.9422 267.809
29769 2 32.9593 -84.8774 -15.3909 -81.9991 119.052 -192.671 48.4763 -17.1894 -28.9934 -78.723 292.197
2044 1 34.332 -84.622 -16.2534 117.468 -277.99 434.216 -10.9026 54.0119 7.47285 -380.053 625.502
27562 2 33.9617 -88.978 -20.6177 -53.0991 19.2914 -213.586 -2.84106 44.1434 32.8303 -59.917 227.416
22276 1 30.1613 -84.3508 -18.2157 104.678 -221.568 356.407 -209.53 -78.7628 -22.9334 -369.553 635.473
1640 2 -21.2331 -84.3463 -17.437 -35.2922 136.391 -229.397 -27.0347 27.2952 5.91542 -75.937 324.051
2608 1 -22.1174 -83.6879 -18.7509 64.3173 -282.039 456.351 73.8106 -4.56214 -50.7449 -381.767 658.459
24612 2 -20.8699 -83.2269 -19.78 -79.7615 138.277 -188.916 -21.3864 13.7383 21.7964 -77.6129 294.311
7419 1 -19.3349 -83.1431 -20.2873 287.545 -294.763 202.247 28.7855 -103.734 -30.9221 -379.135 578.209
4955 2 -23.0037 -82.3274 -18.5568 -21.645 141.529 -225.449 -32.3319 -28.9809 48.1554 -77.1015 337.683
29750 1 -23.6137 -80.7816 -18.5195 55.7718 -177.846 362.069 -33.367 56.9259 -103.574 -375.814 514.972
2100 2 -23.4753 -79.9584 -19.9351 -43.5968 72.296 -171.98 25.3324 -21.815 19.9244 -77.7934 222.117
14962 2 -22.7721 -79.7582 -17.5851 -14.93 84.9461 -204.157 37.8294 -11.9926 72.6043 -80.0715 291.925
2586 2 -20.4787 -79.2773 -16.6176 36.8807 70.8194 -199.731 -2.34348 44.5601 73.5014 -80.2454 295.547
2025 2 -22.9711 -78.8293 -15.2944 -23.3232 57.6136 -175.419 58.1526 16.7197 50.8112 -79.5247 246.42
2522 1 -22.0247 -78.7286 -16.628 -30.8338 -132.989 407.344 -60.5512 -13.4022 -136.834 -374.54 561.166
4803 1 -24.394 -79.3056 -15.0246 149.423 -188.297 334.486 -138.505 -11.0116 -77.4333 -374.587 535.449
5039 2 -24.4483 -80.9344 -14.8878 -98.2225 89.1035 -153.241 61.8554 -0.381595 23.1079 -78.8327 248.002
366 2 -24.9547 -83.6074 -15.3851 -75.1659 152.716 -200.581 19.3468 -21.7295 30.1138 -75.5153 318.589
12497 2 34.9949 -80.4857 -18.0768 -51.2399 81.1011 -185.16 49.0023 -4.37933 44.0325 -81.9305 257.39
4971 1 -18.9945 -78.9726 -17.3169 76.7747 -196.883 307.7 52.1578 -209.376 -86.3223 -365.872 594.509
10187 2 -18.6163 -81.8659 -19.6103 -128.931 162.43 -116.184 3.44992 88.4482 37.2885 -78.6915 330.176
27167 2 -18.5425 -84.2549 -19.4024 -139.051 182.659 -174.906 -19.5214 68.8604 31.2098 -78.7064 366.89
7772 2 -13.5411 -83.3928 -15.9063 -131.101 233.723 -203.66 -98.9178 28.7437 89.4738 -78.3115 469.769
9814 2 -13.9651 -83.6243 -18.4371 -161.269 223.223 -214.384 -99.8888 5.70606 59.7806 -77.5421 460.249
7484 2 -16.0034 -83.3884 -15.3071 -157.738 268.934 -217.353 -14.46 38.3515 45.1329 -81.8768 471.37
12289 1 -17.4632 -82.7995 -15.3244 310.805 -518.599 412.976 -98.8151 -105.483 -109.464 -370.551 938.996
9964 1 -14.7123 -82.5642 -19.3944 288.497 -356.271 266.058 125.202 29.2291 -80.305 -381.253 686.074
7951 2 -17.8271 -82.4795 -16.8477 -128.862 209.791 -196.99 33.2421 92.1878 74.4666 -82.7601 433.412
7326 2 -16.2161 -82.2627 -18.8416 -138.032 169.048 -143.637 -20.8016 43.3189 63.3598 -80.0353 339.149
2583 1 -17.6484 -81.7299 -18.3289 246.823 -353.317 299.753 -10.6732 -187.037 -145.251 -370.92 750.546
2314 2 -14.0031 -81.1327 -19.0342 -162.313 166.228 -110.577 -23.2066 -19.6065 45.1688 -77.152 320.169
12403 2 -18.0319 -80.1953 -17.8363 -107.309 150.889 -145.178 -16.6734 106.999 73.7432 -84.5952 359.684
12494 1 -14.619 -79.7494 -15.3483 217.004 -265.772 434.822 38.5915 -50.638 -116.593 -349.252 662.282
7383 1 -13.7982 -79.6796 -18.4504 229.196 -217.088 196.838 -27.8546 46.9319 -44.5503 -377.503 447.956
4997 2 -14.4419 -79.5979 -16.9107 -120.23 114.334 -132.347 -11.951 -13.3333 49.1306 -87.1596 257.319