ITEM: TIMESTEP
1480000
ITEM: NUMBER OF ATOMS
29952
ITEM: BOX BOUNDS pp pp pp
-2.5093087473165852e+01 3.5078381815859899e+01
-1.0848892860827993e+02 1.1847422295027994e+02
-2.0985542515027589e+01 3.4853395661184415e+01
ITEM: ATOMS id type x y z v_StrAtomXX v_StrAtomYY v_StrAtomZZ v_StrAtomXY v_StrAtomXZ v_StrAtomYZ c_PEAtom v_VMS
4519 2 -13.8908 -97.9811 -17.644 -370.98 420.047 -408.123 14.9175 11.3518 -49.7693 -59.4134 815.457
4527 1 -13.5096 -96.4172 -17.1333 618.481 -593.552 629.872 120.238 0.437391 -53.7684 -393.326 1238.95
14621 2 -12.913 -97.7995 -19.9063 -382.845 331.427 -353.451 -1.34915 143.974 -25.615 -69.0378 744.455
24571 2 -11.1413 -99.157 -18.429 -319.872 446.75 -545.111 2.64201 101.781 -78.7785 -52.8619 927.81
12319 2 -8.42832 -98.9041 -19.3497 -155.133 316.115 -496.986 -6.80344 11.4643 -33.5349 -48.9521 709.89
4816 1 -12.4955 -98.2646 -18.3943 745.632 -818.62 905.043 4.99375 -171.176 110.382 -408.351 1687.06
7300 1 -9.78151 -98.4019 -18.5113 340.99 -654.06 999.007 20.6929 -177.547 89.9474 -421.724 1482.56
9608 2 -9.12844 -97.9015 -17.0823 -172.649 287.823 -427.709 0.0280364 124.916 -17.1713 -57.3118 665.007
7017 2 -12.0072 -96.9711 -17.4236 -265.272 298.544 -379.749 -29.5242 76.7327 3.58261 -69.688 644.868
17086 2 -10.207 -97.1125 -19.4873 -130.847 226.884 -423.328 -19.0995 70.0722 -19.2276 -67.6434 578.861
9517 1 -8.44475 -96.7494 -16.1772 334.29 -488.106 703.361 19.2868 -241.247 -45.8017 -407.136 1139.33
12367 2 -7.26968 -96.9098 -20.7252 -86.5411 195.838 -351.408 -57.1933 -14.9483 -9.91566 -64.7691 485.246
19496 2 -6.83825 -96.6721 -16.2919 -204.578 234.2 -354.489 -22.4387 44.7884 29.0369 -65.8032 539.291
14115 1 -6.99162 -98.4074 -19.9166 294.626 -504.696 818.392 72.1109 35.2853 60.4862 -424.871 1167.14
12177 2 -3.66329 -99.2756 -18.9374 -360.522 391.534 -419.423 -47.9338 37.7843 -36.0758 -51.7938 792.739
7095 1 -3.1267 -98.9003 -20.425 735.54 -722.543 823.68 82.4861 -153.857 15.8338 -415.911 1534.43
9885 2 -5.92539 -98.2708 -18.7313 -206.905 271.229 -371.121 -29.0937 -2.52647 -4.48233 -57.4592 580.272
14618 1 -4.54501 -98.2691 -17.9568 539.535 -614.639 741.317 59.6849 -4.63687 7.59783 -420.21 1271.48
16917 2 -4.86247 -98.2907 -16.3771 -280.167 330.651 -403.901 -43.7104 10.7922 -13.3092 -52.5539 686.004
17074 2 -1.79829 -98.0423 -20.2219 -289.532 314.834 -401.652 -0.23883 125.832 12.2994 -61.4069 702.529
14307 1 -5.47636 -97.0383 -15.4665 478.399 -523.113 723.382 58.0534 -33.4906 -21.3569 -414.136 1150.32
9630 2 -3.79825 -96.8603 -18.2342 -204.41 238.8 -334.992 -5.61448 8.72257 43.5224 -66.8303 526.657
11918 1 -1.15163 -96.6148 -20.4189 415.459 -476.167 689.517 -161.054 -251.828 -42.5366 -402.82 1178.12
24524 2 2.58975 -97.4267 -15.2649 -328.965 363.22 -399.55 25.1572 29.7533 -16.8947 -69.6244 733.738
17006 1 4.05161 -96.8441 -15.5757 670.419 -595.05 719.851 37.7105 72.3103 25.0834 -379.029 1299.33
4424 2 -0.0518529 -96.289 -19.2234 -147.26 196.369 -329.323 60.2545 163.838 -1.74146 -63.7855 552.466
12111 1 1.57272 -96.1453 -15.3034 426.99 -456.696 698.615 -16.9526 -150.238 10.4537 -383.233 1078.71
19508 2 5.03532 -97.0472 -16.8023 -309.299 322.183 -392.947 -22.4752 -114.757 -10.1914 -72.8118 707.053
9800 2 9.89257 -98.1177 -18.9859 -280.687 331.624 -419.179 -71.4291 -130.481 -58.3277 -57.9183 745.314
19786 2 7.34413 -97.2507 -18.7256 -258.469 335.732 -406.794 -53.3101 -191.344 -19.2928 -61.9304 763.341
17104 1 8.84795 -96.9259 -19.3854 527.959 -574.776 702.447 188.913 386.172 113.425 -408.066 1425.46
16815 1 6.25608 -96.5019 -17.7171 483.34 -555.868 738.062 58.74 338.792 69.3504 -390.815 1333.67
19292 2 9.11609 -96.5817 -20.9313 -304.784 272.298 -272.373 -76.7636 -177.273 -112.739 -62.3113 682.243
22085 2 12.2199 -99.0716 -17.7815 -379.426 338.989 -377.462 -3.79254 -34.1793 -45.5799 -53.67 724.22
17205 2 12.3841 -98.4715 -20.2773 -345.377 327.029 -370.49 -18.6658 -94.8147 -95.8281 -59.8008 724.714
12364 1 11.4412 -98.2826 -18.9446 619.637 -578.323 779.868 90.8544 154.592 148.274 -415.559 1347.27
12302 1 13.323 -97.9229 -17.5481 703.059 -480.467 508.405 -37.4949 -8.19256 9.68393 -416.5 1101.34
24569 2 14.3801 -97.9314 -18.8702 -347.935 257.717 -253.274 39.5089 -46.9092 -51.2687 -61.2378 581.045
17050 2 13.8769 -97.4971 -16.2031 -347.168 247.608 -232.082 40.8204 24.2117 51.8485 -58.3693 559.799
19683 1 13.936 -97.947 -20.4804 672.173 -564.749 604.835 6.44343 233.053 213.14 -406.813 1323.09
19580 2 12.1718 -96.8964 -18.2636 -251.523 235.52 -252.53 -51.8066 -36.6658 -26.4064 -61.8839 501.876
26904 2 21.9716 -99.2757 -19.9975 -360.826 456.101 -371.666 -46.5063 32.7584 5.67601 -17.7694 828.34
19859 2 19.5606 -98.4782 -18.7744 -442.741 358.957 -288.92 38.2722 59.6656 -27.3173 -41.5459 748.583
22071 1 20.8592 -98.3073 -19.8498 761.403 -705.116 590.588 -45.5103 -113.147 33.2629 -467.53 1406.16
22104 2 18.0834 -97.9547 -16.5541 -349.941 274.341 -247.966 39.4069 26.389 -42.1937 -52.5176 590.385
12110 1 18.7024 -97.4298 -17.9177 705.758 -506.61 435.334 -134.213 -65.7876 93.5489 -428.144 1143.85
17190 2 21.3803 -96.7654 -19.2735 -282.562 204.994 -244.981 105.622 68.9891 -57.6598 -44.9087 527.751
29301 2 17.5922 -96.6047 -18.7807 -322.558 221.925 -165.188 73.6566 23.1901 -19.8616 -60.5997 504.593
24657 2 19.8727 -96.3656 -17.4057 -266.735 187.064 -235.745 85.9055 39.4602 -69.1138 -57.0739 483.706
27157 1 17.7049 -97.7555 -14.9913 628.687 -540.49 603.977 -11.2241 -75.3616 63.4396 -420.865 1169.69
1928 2 22.66 -96.2413 -16.9303 -177.508 209.588 -328.275 62.9999 66.9217 -138.316 -53.9558 560.064
27095 2 26.0498 -98.0461 -16.0718 -410.089 395.97 -469.645 1.62394 -86.8556 -45.6969 -49.1355 854.51
29389 1 26.7045 -96.642 -16.4116 755.723 -612.965 733.886 -66.0332 173.579 254.502 -418.994 1463.45
27246 2 27.5641 -96.5114 -15.0642 -336.592 271.821 -373.255 54.882 -46.052 -69.7403 -59.9611 651.005
29 2 24.2093 -96.9743 -14.8956 -264.685 250.854 -385.045 38.6638 -50.9695 -96.7317 -60.5837 618.6
9799 2 -21.7849 -92.9637 -18.0711 -111.66 63.9918 -213.68 -58.4467 -2.68052 16.0854 -60.9622 265.004
4993 1 -21.5618 -92.5508 -19.5868 187.462 -85.0943 440.062 150.517 4.97253 -91.0448 -403.289 547.585
7205 2 -22.025 -92.2395 -15.1642 -58.1624 -4.5673 -195.837 -57.5209 44.9135 -18.7726 -63.8828 215.036
29762 1 -22.2198 -92.0418 -16.7812 144.546 -34.5426 372.148 106.023 -40.1888 18.8442 -407.77 405.302
9473 2 -20.2446 -91.6522 -19.61 -131.995 75.0255 -202.043 -83.7569 23.6377 61.7707 -72.5032 310.539
7113 2 -23.7446 -91.8486 -16.9968 -38.331 -5.00718 -230.468 -56.8431 -3.7727 2.04101 -61.7471 232.763
27633 2 -22.7303 -91.5822 -20.0419 -37.3683 10.9198 -222.212 -67.2262 24.8233 51.7903 -66.2213 262.446
9894 2 -21.4044 -90.6664 -16.9972 -81.4404 77.9825 -180.689 -33.8907 29.0114 1.87672 -68.2049 238.893
4983 1 -23.6556 -90.2142 -20.1156 64.0271 -87.5943 380.508 61.4397 -63.6949 -95.6322 -402.71 471.239
2327 2 -21.1075 -93.5885 -20.7949 -148.01 95.5252 -249.021 -65.2463 16.3282 41.4517 -62.9693 335.914
4248 2 -14.0017 -95.7953 -15.8657 -275.261 241.758 -257.687 -76.1861 -41.0388 46.7869 -67.3693 536.25
12116 2 -13.6316 -95.2971 -18.2596 -262.816 224.305 -288.636 -83.5802 56.2865 61.1964 -80.4766 540.581
29775 1 -15.1013 -94.5784 -20.7234 453.288 -325.118 303.839 271.005 -219.818 -156.614 -377.879 975.087
2196 2 -16.0234 -94.4628 -19.4284 -173.381 162.45 -230.081 -149.029 54.1954 71.5646 -74.6691 475.231
7411 2 -17.3873 -93.6472 -17.0478 -176.555 116.365 -144.625 -124.498 -19.0037 32.7377 -70.4486 358.144
4495 2 -13.7533 -93.7478 -20.3555 -205.9 222.328 -206.062 -49.9706 116.061 68.9235 -79.2473 495.582
9700 1 -17.2556 -93.5268 -15.4257 379.238 -221.052 290.287 238.166 134.899 -92.3831 -388.6 751.819
27087 1 -16.8224 -93.3826 -18.5503 290.774 -268.209 394.347 296.972 -90.7612 -103.969 -386.615 838.333
7410 2 -13.5264 -93.2449 -15.5759 -142.475 149.946 -191.35 -49.6917 -26.1001 56.9435 -74.0244 348.382
29673 2 -17.961 -92.8998 -19.5803 -156.874 106.256 -206.563 -152.525 76.4174 56.0138 -73.4845 426.033
1944 2 -15.8595 -92.0645 -18.19 -129.45 207.117 -262.377 -104.231 41.5236 48.6882 -76.3075 469.641
29654 1 -18.8408 -91.8712 -20.4103 345.425 -226.094 358.757 213.032 -149.567 -129.021 -385.666 766.57
14780 2 -14.1987 -90.691 -19.5767 -121.586 270.752 -291.314 -25.0414 45.3964 24.3679 -73.02 509.089
4732 1 -15.233 -90.615 -18.3256 202.046 -549.879 631.725 109.87 -60.2086 -101.963 -386.244 1073.02
2132 2 -18.1045 -90.455 -20.0842 -185.792 186.144 -180.63 -85.7917 84.1574 56.4641 -73.259 435.128
9899 2 -17.2439 -91.9841 -14.8758 -192.385 138.612 -147.89 -95.0578 -48.9253 18.0536 -77.3033 363.425
6926 1 -14.2545 -94.5446 -14.9373 377.802 -274.491 375.558 185.336 111.999 -136.682 -394.436 787.879
2278 2 -15.8369 -94.1775 -15.0168 -174.03 123.927 -186.098 -123.618 -87.5224 69.34 -71.902 419.248
4899 1 -10.6008 -95.7392 -20.2724 112.058 -371.826 658.901 -26.593 -156.771 -2.17181 -389.297 934.695
9438 2 -9.08115 -95.3633 -16.6975 -89.4447 203.432 -322.537 -24.7247 130.141 17.8145 -71.0977 511.832
9798 2 -11.5098 -94.6472 -19.5142 -121.888 221.566 -315.255 22.6122 83.6121 44.9366 -78.9655 500.328
7201 1 -12.8912 -94.0786 -19.0786 369.321 -479.883 554.6 60.0362 -177.173 -132.506 -370.963 1034.64
9506 1 -9.58046 -93.8807 -16.5311 113.668 -356.694 590.257 39.9875 -224.104 -18.1132 -386.757 910.492
29566 2 -11.1516 -93.7727 -16.2619 -75.6223 166.255 -278.167 -21.2777 84.9838 38.5393 -74.6208 419.524
5069 2 -8.83997 -93.2048 -15.2934 -86.4745 178.04 -259.193 -25.2115 90.4148 9.11934 -72.0717 414.93
16822 2 -9.25365 -93.0675 -17.9047 -44.1853 193.509 -311.895 8.00971 67.1931 -4.33154 -75.6778 453.424
27068 2 -12.7877 -92.9411 -18.0019 -145.59 254.702 -317.791 -16.894 50.1805 43.1978 -80.394 522.327
19117 1 -8.49047 -92.6821 -19.1892 126.558 -390.677 601.847 -2.57492 -80.3865 12.9015 -385.826 871.305
7117 1 -12.2936 -92.7189 -16.5448 236.807 -422.709 532.282 39.7333 -68.4943 -78.3582 -382.486 868.543
19703 2 -9.46443 -92.4601 -20.4876 -71.2259 195.059 -275.37 3.80638 41.5385 -11.0121 -71.8871 415.363
14405 2 -7.62332 -91.2672 -19.0777 -105.384 208.091 -291.901 -0.631485 52.9674 1.16939 -73.7781 447.153
179 2 -11.5956 -91.234 -16.492 -101.803 236.323 -272.733 -25.038 47.5174 37.1137 -73.0986 462.741
29407 2 -11.6945 -90.4466 -18.8171 -112.636 214.409 -312.766 -28.1814 22.5089 -5.05155 -75.6849 465.232
9795 1 -12.7196 -90.4291 -20.064 298.279 -466.725 507.292 37.0718 -35.3579 33.3094 -389.591 894.436
7053 2 -7.20546 -93.7455 -19.0302 -93.7336 208.174 -279.461 -17.2261 45.9657 3.59783 -73.5069 434.722
12202 2 -9.25308 -95.1926 -20.9066 -26.1349 187.373 -321.806 9.66042 12.9239 -6.92439 -68.505 443.914
14684 2 -2.37958 -95.5678 -20.0792 -186.918 215.156 -302.687 61.0807 97.8234 30.0159 -71.9502 514.021
16881 2 -4.38709 -95.8149 -15.586 -173.478 231.056 -325.385 2.84075 32.3806 45.1133 -65.0442 507.395
9712 1 -3.13453 -95.4564 -18.6425 267.271 -420.801 598.308 -11.9797 -92.7465 -124.301 -393.508 939.89
17093 2 -1.79414 -95.1413 -17.7675 -78.4542 188.538 -310.805 37.572 104.444 63.3284 -69.154 486.107
17135 2 -4.3936 -94.5036 -18.8049 -162.634 227.502 -275.388 -52.2504 8.84549 40.2246 -71.4242 471.368
17008 1 -4.48281 -94.1865 -15.5179 239.892 -393.239 592.065 -63.5401 -113.072 -104.227 -392.097 911.542
16617 2 -5.58671 -93.8454 -16.7294 -133.497 209.588 -293.719 -2.01254 63.9785 27.1397 -74.1239 461.356
19501 1 -5.64159 -93.621 -18.3067 248.519 -430.216 511.727 76.7596 -116.1 -19.8202 -388.76 876.299
14431 2 -3.18141 -93.3695 -15.9143 -44.8619 188.996 -305.965 20.7684 63.8348 64.2167 -70.993 458.056
7024 1 -1.68632 -92.8136 -15.3285 56.4751 -435.054 625.088 26.6411 -122.284 -64.7306 -390.325 950.773
12309 2 -5.31206 -92.185 -18.9038 -141.335 217.026 -254.778 -13.068 57.9193 4.68447 -71.7993 438.848
11852 2 -1.75824 -91.3704 -16.2165 -61.5507 267.519 -310.569 -1.90473 58.2208 30.057 -73.8953 514.909
6915 1 -6.17396 -91.2589 -19.7836 280.641 -437.427 515.906 -32.5401 -79.1129 2.43619 -391.972 872.857
12216 2 -2.72284 -90.4875 -20.6921 -93.7367 208.201 -281.026 3.70134 51.0715 -26.9226 -62.8787 439.129
20025 2 -6.66832 -90.3392 -16.5442 -102.572 232 -276.708 21.0803 100.653 34.9843 -73.0954 485.717
12363 1 -1.68213 -91.6391 -20.7658 153.054 -448.076 581.164 -50.0686 -51.85 71.1128 -407.265 912.547
12198 2 0.562811 -95.9073 -16.4836 -123.379 204.905 -338.961 12.5452 165.616 0.253952 -70.8546 554.776
12086 1 -0.210743 -95.3078 -17.8185 199.057 -371.778 587.973 -94.2388 -337.08 -11.1607 -395.311 1032.96
12212 2 3.08148 -95.3834 -15.7311 -250.046 171.654 -314.81 -22.2049 4.34851 -13.4072 -86.0695 459.795
17001 2 0.472789 -94.0021 -18.3427 -117.643 173.501 -241.166 31.0388 106.864 -34.1102 -72.2457 420.269
14694 2 3.6219 -93.9263 -19.0889 -125.819 110.88 -181.858 7.84817 -17.6179 -158.539 -73.3061 385.942
11929 1 3.68006 -93.875 -15.3998 451.424 -485.726 468.871 43.7074 32.6633 -9.73944 -361.539 950.853
11919 1 3.08225 -93.5541 -20.5689 196.76 -171.175 387.247 -78.0723 16.2116 293.536 -398.618 720.633
6924 2 -0.0596451 -92.9209 -15.7111 -100.481 254.424 -286.881 -67.9645 72.615 29.1634 -76.0544 509.003
7327 2 2.46303 -92.8953 -15.7593 -183.109 298.879 -252.16 -80.9853 28.5722 3.87 -82.2998 540.863
9243 1 0.70038 -92.5144 -19.0222 300.104 -384.847 384.858 -20.594 -59.8568 93.0545 -394.18 756.566
19397 2 1.82116 -92.5661 -20.0804 -119.509 136.755 -206.473 27.2811 -8.5822 -114.261 -69.5065 370.325
7423 2 -0.72819 -91.9725 -19.5061 -126.977 220.761 -234.859 17.0611 35.2959 -16.886 -67.3703 418.977
14679 1 1.14759 -91.9948 -16.1435 329.316 -632.073 504.737 167.583 -106.487 -23.6979 -378.497 1115.19
9428 2 1.28539 -91.7225 -17.7513 -169.573 259.601 -176.109 -42.9282 15.0864 -9.38702 -72.7007 439.902
11934 2 1.28286 -90.5059 -15.5787 -164.832 286.215 -272.451 -74.0926 39.9327 -6.78706 -81.1431 533.814
11914 2 4.75202 -93.6859 -16.5764 -184.796 217.614 -202.133 24.1542 -88.9431 -48.045 -83.4091 449.02
14485 1 4.92846 -93.9173 -18.167 354.572 -324.511 405.259 -27.2309 179.723 288.876 -376.155 920.662
22211 2 9.16966 -95.5784 -18.3876 -219.7 244.456 -273.671 -89.3083 -155.143 -8.34101 -68.5441 582.879
12321 2 7.27008 -95.5617 -16.8438 -223.537 217.317 -281.648 8.62317 -116.209 -18.7675 -75.2255 514.918
14443 2 5.59864 -95.3092 -18.5779 -217.381 171.059 -273.88 -21.7495 -122.852 -114.379 -75.2711 511.829
19227 1 8.56323 -94.6623 -17.2244 424.246 -456.641 442.794 3.90639 158.473 -8.23419 -389.244 931.791
19784 2 9.30926 -94.4483 -15.8147 -180.947 205.693 -183.87 3.26361 -3.48687 32.7408 -69.0594 392.319
12010 2 8.12761 -93.2948 -18.0272 -231.517 211.099 -194.633 34.7899 -84.5882 -71.0289 -77.0561 470.294
12503 2 7.13413 -92.854 -20.6114 -229.587 173.381 -101.796 -27.8117 -115.495 -147.636 -75.997 484.713
14592 2 5.77398 -92.6502 -18.5883 -201.078 211.548 -160.705 36.5246 -80.2624 -133.557 -77.8045 481.738
16983 1 7.26724 -92.3452 -19.0224 483.775 -454.311 270.945 -47.4833 140.7 233.126 -378.652 977.162
24493 1 8.2416 -90.7892 -15.0732 352.959 -372.545 283.999 -49.3694 56.1865 88.066 -378.077 721.894
17013 2 10.0605 -90.7052 -18.5216 -181.196 131.362 -112.31 24.5661 -47.3415 -19.3511 -74.6129 300.94
11997 2 7.29933 -90.6806 -19.0936 -248.101 194.918 -98.8873 -13.8004 -40.6565 -66.0717 -78.0547 413.585
24513 2 9.20615 -92.0528 -14.9715 -176.792 154.004 -152.37 42.8213 -10.8757 -23.2443 -77.3046 330.787
26897 2 8.35411 -90.0423 -16.4965 -216.815 176.112 -123.816 24.4454 -28.1243 -42.4924 -77.0965 368.892
5118 2 6.6722 -91.1291 -14.7341 -152.065 216.614 -170.087 11.7944 -47.5671 -42.3225 -79.5241 394.299
19505 2 14.7445 -95.4853 -14.9554 -275.046 255.356 -235.419 -5.40517 -35.854 7.4315 -66.5924 515.74
14741 2 15.5341 -94.9836 -20.1643 -246.109 238.752 -176.429 44.6106 -0.390117 2.48231 -66.8373 460.597
19405 1 14.7324 -93.9089 -15.0759 454.265 -475.208 447.901 48.0186 118.027 88.2291 -395.334 964.42
1824 2 16.2437 -93.5014 -15.397 -231.715 212.191 -214.522 -7.26483 -45.7096 -45.2064 -70.9478 449.748
19425 2 13.893 -93.248 -16.3252 -189.199 201.162 -182.742 -26.3579 -33.7681 -30.6988 -67.249 397.788
17109 2 11.3829 -92.5826 -20.0585 -201.714 210.884 -137.643 -21.9115 -66.3886 5.49851 -70.2358 403.312
17489 2 12.1932 -91.8638 -17.6232 -132.699 130.384 -121.071 -7.34431 -9.05211 -13.7477 -68.6724 259.352
12183 1 13.4736 -91.7497 -16.6713 295.774 -294.482 314.014 73.8032 35.0106 67.5478 -394.497 627.063
17187 1 11.4714 -91.4264 -18.9679 327.04 -269.341 225.639 -15.328 87.7385 3.84947 -392.881 573.866
24606 2 13.2779 -90.9345 -15.2543 -150.775 156.557 -181.691 -30.3584 -56.4958 -16.2845 -73.7305 343.579
19403 2 14.7346 -91.0481 -17.3419 -168.688 123.931 -153.242 -41.3469 -30.7263 -37.4805 -70.731 305.81
14896 1 16.262 -90.6048 -17.3854 337.937 -274.99 295.837 14.7838 120.006 113.392 -395.449 658.848
16637 2 16.6715 -94.4739 -17.8852 -273.326 219.039 -136.525 35.3401 -35.3826 3.83575 -65.9593 448.696
17077 1 16.9392 -95.2342 -19.2656 555.366 -428.247 283.445 -159.946 -1.84033 -4.17711 -404.159 922.377
17039 2 12.2951 -90.1839 -19.6149 -172.01 125.836 -95.9069 21.1152 -39.8245 -23.0764 -71.8639 282.01
24409 1 21.3592 -95.9159 -17.8639 433.952 -390.254 533.393 -225.319 -145.238 203.695 -425.014 1054.15
7115 2 16.8468 -90.184 -15.8845 -138.687 159.773 -197.027 14.2132 -34.959 -19.4104 -69.5888 339.553
24378 2 17.0461 -92.0172 -17.4968 -200.706 157.208 -153.097 -0.395359 -63.2121 -35.9043 -69.19 359.422
27070 2 18.0456 -94.6052 -20.2417 -257.548 206.056 -160.382 110.817 -4.9557 -12.6993 -66.6729 465.534
29298 2 21.5697 -94.313 -17.9372 -176.378 164.054 -218.333 137.508 27.3422 -121.963 -63.289 485.314
27201 2 18.7327 -93.7374 -16.3254 -166.848 182.463 -189.961 42.8263 -36.2663 -39.8583 -66.5452 380.579
14416 1 17.1897 -93.454 -16.7978 445.366 -386.353 349.933 -15.8791 104.283 42.4921 -397.401 812.582
21988 1 18.9776 -93.4225 -20.6893 399.309 -359.612 316.754 -228.345 30.4021 65.6006 -399.126 832.005
22012 1 19.6785 -93.1329 -15.1128 225.134 -339.028 425.48 -111.08 60.1735 72.427 -403.452 731.478
17179 2 19.7469 -93.1151 -19.2894 -151.827 124.714 -168.094 119.47 -11.2577 -50.4625 -67.6595 363.423
2030 1 21.1993 -92.9365 -18.6383 251.568 -205.977 356.924 -281.587 6.73862 167.954 -397.462 768.953
22361 2 21.2043 -92.9329 -15.5115 -135.519 132.284 -187.317 57.8431 -39.0144 -55.5773 -65.9852 334.878
14433 2 22.2145 -92.8615 -19.8889 -112.137 51.1185 -170.376 157.337 15.566 -62.708 -70.9971 355.444
17100 2 21.307 -91.4487 -17.95 -120.74 103.149 -182.293 78.5866 -61.4839 -40.9111 -70.5914 320.29
19588 1 22.0116 -90.0364 -18.3228 222.629 -231.742 328.307 -28.0631 76.7822 33.7777 -389.516 537.689
29601 2 22.7428 -90.4973 -19.7233 -114.366 77.6583 -178.589 28.1039 -28.987 -42.9863 -77.5231 252.516
17213 2 18.839 -91.8175 -14.8922 -138.266 154.706 -209.484 50.4902 -25.1784 -17.4191 -67.5558 349.613
16969 1 22.7328 -92.9563 -15.0325 355.735 -368.129 309.162 -62.8463 64.5176 156.023 -401.74 767.986
19688 2 27.5182 -96.0763 -17.7241 -402.321 317.448 -299.561 15.2893 -100.347 -159.084 -54.3102 749.331
29569 1 23.8657 -95.8211 -15.9761 387.276 -451.583 646.457 -56.3796 6.34561 320.088 -412.167 1142.5
21898 2 25.3166 -95.7659 -16.5444 -264.753 241.803 -320.183 45.9062 -49.9639 -186.314 -62.5946 636.946
4599 1 27.6001 -94.5397 -18.035 671.323 -409.241 419.336 -51.0945 147.811 394.233 -401.287 1224.12
24504 2 23.394 -94.422 -15.2671 -180.545 221.666 -235.842 17.7411 -23.9639 -120.152 -65.3667 482.751
29792 2 27.6513 -93.8787 -16.5437 -304.102 193.062 -176.059 81.9693 -23.2054 -153.211 -69.7239 540.464
24558 2 26.3873 -93.9156 -18.9286 -259.332 112.262 -195.109 17.1968 -60.1131 -190.321 -72.4763 488.606
5 2 28.6971 -93.6165 -18.8599 -244.272 100.032 -186.74 8.93452 -65.3016 -129.316 -70.413 406.506
24675 1 28.0359 -93.0472 -15.2122 481.379 -391.424 332.795 -248.622 -53.6233 160.257 -397.951 961.92
2223 1 28.7642 -92.8685 -20.1574 328.874 -68.5585 376.405 -13.0232 166.23 112.3 -379.085 548.034
14510 1 26.012 -92.4067 -19.3807 338.799 -76.5143 362.143 -21.4757 93.4309 196.538 -367.077 571.12
2032 1 23.1572 -91.7799 -20.6269 127.005 -27.5065 301.801 -187.18 -19.0905 53.9023 -379.184 443.119
10 2 24.7079 -92.1565 -20.2013 -86.535 -3.53875 -172.975 54.6762 -15.3807 -52.8701 -82.0178 198.993
27371 2 27.277 -91.9249 -20.5068 -172.885 20.9867 -191.819 8.65882 -54.8552 -47.6788 -87.6129 240.182
22367 2 23.5482 -91.7631 -15.7079 -181.73 144.662 -128.348 42.1374 -75.7245 -63.3192 -69.619 355.69
27299 2 28.3395 -91.517 -15.5076 -192.857 147.478 -132.499 113.336 58.5973 -23.8408 -69.8537 386.614
14598 2 26.3409 -91.3812 -18.2721 -181.644 78.3724 -152.936 24.9056 -37.094 -53.7819 -83.3542 275.017
29761 1 23.9022 -90.2257 -15.8896 357.293 -238.794 205.035 -77.4356 162.248 -55.0931 -394.06 627.543
19532 2 23.0202 -89.8241 -17.1487 -162.669 95.8071 -131.077 28.8906 -62.0929 5.23618 -72.6736 271.653
27177 2 35.0531 -90.8288 -19.943 -22.3479 -7.41072 -189.204 -10.3838 26.6588 56.0984 -64.87 206.041
7492 1 34.8142 -91.6598 -16.7514 98.3747 -12.718 464.896 86.4109 51.9121 -22.0907 -413.178 468.344
4740 2 34.4063 -92.4698 -15.3932 -43.6975 36.4729 -287.301 -17.5588 -35.8374 -17.3998 -56.3758 301.638
29289 2 33.9411 -92.1245 -18.0348 -53.4644 7.48075 -201.575 -8.07733 10.1388 32.3395 -58.4685 195.753
9928 1 33.7954 -91.8425 -19.653 55.1836 29.7214 387.258 12.0478 -70.4378 -117.177 -410.613 419.39
2515 2 29.8538 -91.7924 -20.324 -64.1705 34.9937 -206.121 48.517 -64.6525 14.4408 -77.2783 253.549
4823 2 32.3586 -91.0558 -19.7968 -13.6935 23.4849 -185.639 11.3153 23.1799 70.3712 -67.0235 232.793
9724 1 30.8147 -90.5696 -20.0041 76.8038 -175.419 383.071 -113.809 7.23064 -131.746 -387.651 570.744
27012 2 34.5381 -90.08 -16.6883 -63.648 74.3339 -235.802 -43.9246 -29.2016 30.5852 -65.3217 289.107
27562 2 33.6927 -93.1251 -20.7067 -72.7157 12.4894 -238.901 -19.1084 32.8817 32.984 -58.0662 237.992
26871 1 -20.5453 -89.3606 -16.6903 225.875 -298.401 360.774 38.2859 -91.471 -11.8059 -395.561 627.457
7685 2 -20.3785 -89.1633 -15.0864 -125.378 170.135 -172.954 -19.7771 33.8343 -10.8894 -68.9022 329.566
29648 2 -23.1601 -89.0352 -19.1227 -53.9977 124.748 -262.087 -32.1926 25.0653 53.9877 -66.3762 355.224
1640 2 -21.3571 -88.1944 -17.4359 -61.9331 156.452 -249.08 -39.0934 26.7167 35.387 -68.3222 366.154
2608 1 -22.2181 -87.7193 -18.7364 109.244 -339.23 524.16 103.397 -6.26884 -116.613 -399.706 795.204
24612 2 -21.0863 -87.3091 -19.8998 -137.821 156.232 -213.239 -40.733 45.7481 38.6392 -69.2805 360.648
7419 1 -19.5373 -87.1406 -20.3918 378.903 -337.87 256.611 31.5972 -100.649 -61.3008 -393.074 696.938
4955 2 -23.1424 -86.3915 -18.5781 -35.0291 154.978 -255.685 -63.4538 -29.578 69.0967 -67.9544 394.645
29750 1 -23.7608 -84.8071 -18.641 102.565 -166.079 427.65 38.8032 62.8567 -119.414 -390.69 569.501
2100 2 -23.6334 -84.1791 -20.1624 -67.6768 63.6568 -151.808 -8.13797 -37.4703 34.2747 -69.3457 208.113
5039 2 -24.859 -84.8162 -15.0758 -135.059 90.9294 -163.613 31.2713 1.85889 15.5744 -76.2553 249.02
2035 2 -19.1241 -89.5547 -17.4811 -168.906 190.102 -179.977 -25.0893 39.8725 41.0479 -73.2346 380.39
10187 2 -18.8117 -85.8539 -19.7091 -158.698 164.888 -129.978 4.28059 79.1007 37.4223 -71.8391 345.349
12271 2 -14.4295 -89.8862 -17.0829 -131.282 288.755 -278.565 -69.7462 -12.3504 60.6513 -73.2488 534.859
9869 2 -16.5345 -89.5838 -18.411 -107.505 257.131 -281.809 -52.4376 47.4944 75.4795 -73.0761 508.927
2524 1 -18.1101 -89.4382 -18.7972 314.411 -469.829 448.209 90.1737 -129.588 -127.253 -387.677 928.017
4900 1 -13.5834 -88.4586 -17.0138 279.947 -517.364 549.468 222.431 0.545622 -183.882 -389.441 1083.1
27167 2 -18.7129 -88.1774 -19.4832 -183.75 198.523 -202.672 -12.0353 63.0005 53.5958 -73.1051 417.952
7772 2 -13.7525 -87.6641 -15.6182 -134.819 255 -240.621 -108.068 11.8942 74.1614 -72.6232 506.317
9814 2 -14.1922 -87.6131 -18.2846 -170.637 231.347 -255.469 -100.67 -10.6574 68.0459 -73.6363 497.518
7484 2 -16.1188 -87.2095 -15.307 -186.957 277.257 -240.713 -14.2526 3.32826 39.3387 -79.2436 498.622
12289 1 -17.6867 -86.7954 -15.45 392.027 -517.895 442.481 -103.896 -43.9393 -88.4283 -375.84 968.528
9964 1 -14.8489 -86.5293 -19.2393 374.717 -419.245 341.686 114.625 24.1057 -86.4556 -389.705 817.818
7951 2 -18.1732 -86.618 -16.9562 -168.475 212.783 -215.833 39.0606 80.8731 75.623 -78.1294 454.984
7326 2 -16.4356 -86.1326 -18.7113 -160.523 187.632 -175.878 -4.34951 27.0114 69.8226 -76.0718 379.031
2583 1 -17.9587 -85.7404 -18.3298 303.052 -390.316 338.089 -23.8076 -166.816 -150.061 -381.615 811.8
2314 2 -14.0941 -85.129 -18.9042 -208.589 209.712 -158.796 -12.6128 -15.2547 41.8259 -72.7966 403.795
12403 2 -18.3315 -84.2618 -17.8901 -125.453 157.557 -168.936 -4.86651 91.3142 56.3415 -78.3079 359.027
9635 2 -14.8997 -86.8489 -20.8694 -182.019 160.158 -138.297 -39.9346 15.1131 2.33927 -68.0235 330.941
7185 2 -14.6757 -85.1913 -14.9032 -141.498 195.417 -260.331 -36.3479 21.8751 38.9813 -84.5907 421.459
12099 1 -11.086 -90.0212 -17.3959 138.641 -416.977 603.22 52.7635 -115.79 -78.8506 -388.966 921.901
4281 2 -9.50308 -89.8261 -17.3832 -56.2316 201.019 -300.992 11.2362 69.2615 40.5501 -71.8338 456.895
4622 1 -8.02431 -89.4395 -16.8252 159.228 -427.82 558.087 -27.443 -167.045 -90.5535 -391.994 921.105
11913 2 -8.41973 -89.1602 -15.2279 -90.5964 206.168 -273.291 5.15176 56.6797 47.6718 -69.6233 438.405
7379 2 -12.681 -88.9511 -20.7715 -169.415 176.589 -204.337 -65.4524 11.2065 -49.4441 -69.3986 391.898
2300 2 -12.0389 -88.7322 -17.0569 -82.5412 220.911 -291.023 -75.3581 36.4415 83.8512 -70.4762 490.842
2016 2 -7.58593 -88.0858 -17.6613 -110.786 213.084 -263.025 25.8998 61.7316 24.7709 -70.229 438.93
19902 2 -8.24451 -87.9159 -20.1128 -112.798 175.356 -251.032 50.8767 48.5512 -21.366 -66.3841 397.72
2307 1 -7.4882 -87.127 -18.8943 264.311 -417.366 477.711 -65.5395 -70.1764 -18.1296 -399.78 827.248
2324 2 -8.12733 -85.6287 -18.5562 -134.175 219.073 -250.848 -21.0715 17.5846 17.9898 -65.8682 427.6
20075 2 -8.67333 -84.7177 -16.2164 -74.8422 184.074 -271.307 -52.3956 17.9176 32.1855 -70.2701 410.865
12397 1 -8.38408 -84.2755 -17.7396 183.464 -353.77 475.86 107.121 -7.45558 2.32105 -398.56 752.202
17276 2 -3.98741 -90.2092 -16.535 -74.3615 247.051 -289.084 44.6511 86.9461 23.5285 -73.8111 498.746
12316 1 -5.33312 -90.1437 -15.6834 193.838 -507.535 607.387 -66.4654 -183.98 -58.8706 -385.848 1038.36
9616 1 -2.46748 -89.9974 -16.3991 132.865 -479.875 574.623 -25.4769 -126.238 -39.7102 -383.695 946.451
1833 2 -5.33802 -90.0137 -20.188 -147.324 214.193 -246.789 37.2623 32.6867 -29.1364 -68.0228 431.814
17202 2 -1.76946 -88.9871 -17.4694 -108.769 188.296 -216.959 -7.92183 43.9913 -9.63373 -74.2028 371.974
14603 2 -5.33876 -88.6418 -15.1124 -80.5072 220.407 -304.986 13.4313 62.7998 39.4895 -76.0155 474.911
17465 2 -3.69854 -87.9625 -20.1447 -126.321 147.679 -178.145 22.4908 50.618 -31.328 -65.5631 322.661
5003 2 -5.89816 -86.8696 -19.1932 -140.575 189.66 -220.806 26.1662 39.0437 -19.181 -68.4678 386.935
14411 2 -1.5216 -86.5491 -16.702 -123.409 207.55 -222.676 -4.97448 12.6499 -38.7993 -78.8883 396.626
7299 1 -4.33683 -86.5787 -19.5054 274.326 -330.512 352.125 -25.9987 -99.2561 80.6919 -398.967 685.605
17170 2 -3.80808 -86.5599 -15.4675 -79.5061 197.573 -280.691 -32.3429 34.4611 9.09477 -78.7489 424.195
4722 2 -3.62536 -86.3824 -18.0815 -119.737 150.119 -188.057 5.253 72.6476 -45.2747 -71.741 343.499
7420 1 -2.99878 -85.9207 -16.7151 194.959 -398.948 441.75 34.5397 -85.1077 54.3234 -382.487 770.95
17081 2 -4.01721 -85.2749 -20.4977 -160.606 157.29 -146.267 1.07886 25.0425 -58.7341 -67.0664 330.059
19687 2 -2.79434 -84.35 -16.5578 -89.526 214.304 -235.175 -16.6416 44.9327 -21.8023 -75.1777 407.545
7204 1 -3.93666 -89.3842 35.0819 270.726 -406.286 435.474 -62.9168 -80.6192 101.969 -406.251 812.152
11837 2 -2.14568 -89.1877 -14.9683 -65.8766 210.899 -330.18 -17.3054 52.0457 12.4724 -81.3576 478.649
2334 2 -1.22869 -84.4272 -14.6102 -114.657 232.555 -217.392 13.6898 3.53212 -2.85492 -80.76 409.152
12002 1 1.17434 -88.8913 -15.4468 278.078 -434.063 507.95 102.918 -22.6112 88.6725 -369.023 883.507
2118 2 4.04597 -88.2844 -17.3389 -151.296 199.055 -160.92 -30.8082 -65.7726 -51.075 -75.7269 387.12
7400 2 3.48805 -88.4407 -19.964 -138.331 155.688 -125.277 -56.4984 -54.1558 -12.1356 -72.431 318.741
17084 2 2.60323 -88.1505 -15.2294 -114.145 240.963 -246.044 -14.3409 -32.1101 -75.0532 -80.3732 459.29
24400 1 4.13016 -88.1936 -15.7178 278.268 -479.316 408.905 19.1806 98.0688 154.385 -379.255 889.623
21706 2 0.381277 -88.1528 -16.6464 -140.659 203.155 -208.885 -27.0116 -10.0689 -63.8018 -79.6999 401.279
9410 1 4.48589 -87.7594 -18.8015 334.793 -344.786 243.397 135.244 113.069 0.0743032 -384.875 708.023
14872 1 -0.802709 -87.6934 -17.586 263.482 -353.332 367.763 22.3052 17.4463 111.494 -383.05 703.814
19524 2 1.15729 -87.6163 -20.5061 -183.165 140.015 -133.31 -50.2523 -28.3525 -21.3654 -70.4172 319.649
12414 2 -0.695171 -86.964 -18.9624 -128.141 151.191 -142.446 3.66084 -25.5429 -61.3554 -71.3427 309.06
17091 1 0.141664 -86.3586 -20.1867 331.253 -279.76 218.729 40.8806 33.3065 98.9969 -393.001 595.809
17385 2 4.2143 -86.1344 -18.8299 -157.124 186.219 -146.943 -55.7106 -34.7827 21.7246 -76.2508 358.955
2142 2 0.889737 -84.911 -20.1013 -206.875 146.694 -105.396 -38.5201 15.2936 -14.6433 -74.2677 324.384
14809 1 3.80318 -84.6317 -18.4769 270.949 -349.354 335.734 91.1124 24.7 -78.7859 -377.844 688.851
14892 2 2.34397 -84.6058 -17.6825 -161.187 198.258 -175.709 -35.0853 -16.999 17.5709 -81.0393 374.323
4915 2 1.61338 -84.3219 -15.2142 -136.104 224.917 -195.536 6.86628 -18.5968 -25.0238 -83.499 397.973
14985 2 3.28983 -83.8688 -19.8285 -139.747 127.28 -81.2143 -51.8831 -4.01134 14.7633 -73.9142 260.533
12113 2 5.06687 -86.8897 -15.4768 -170.148 262.275 -199.113 -11.8385 -14.0568 -22.9441 -77.5281 450.496
14501 2 4.78147 -89.3918 -14.8941 -140.436 256.685 -221.335 -30.9685 -38.2435 -88.8207 -78.3413 476.769
21901 1 9.33014 -89.5318 -17.6441 359.174 -343.03 256.489 -25.6505 49.8186 34.3833 -383.743 666.704
11810 1 7.23712 -89.1404 -19.5318 443.163 -347.146 136.828 93.6772 92.6101 45.1209 -380.83 731.091
19306 2 8.6204 -88.6678 -18.7629 -186.806 191.592 -108.23 -12.1991 -29.8739 -6.38904 -74.8252 350.532