ITEM: TIMESTEP
1580000
ITEM: NUMBER OF ATOMS
29952
ITEM: BOX BOUNDS pp pp pp
-2.5093087473165852e+01 3.5078381815859899e+01
-1.1174989342952361e+02 1.2173518777152361e+02
-2.0985542515027589e+01 3.4853395661184415e+01
ITEM: ATOMS id type x y z v_StrAtomXX v_StrAtomYY v_StrAtomZZ v_StrAtomXY v_StrAtomXZ v_StrAtomYZ c_PEAtom v_VMS
24571 2 -11.1592 -100.165 -18.2407 -303.001 455.651 -518.367 -15.2311 93.365 -76.5155 -53.7818 910.898
12319 2 -8.5823 -99.9552 -19.3843 -145.092 321.932 -519.387 -33.8772 35.3094 -57.0926 -53.623 741.603
7300 1 -9.73409 -99.398 -18.4543 313.472 -623.679 974.238 79.1297 -176.173 96.1893 -416.172 1440.05
12177 2 -3.76275 -100.493 -18.8867 -356.179 436.764 -453.068 -31.8154 52.0805 -49.8845 -55.2107 856.511
7095 1 -3.15144 -100.05 -20.3255 723.961 -785.13 880.93 73.592 -166.372 15.3507 -410.113 1624.46
14115 1 -7.17526 -99.4596 -19.9801 209.502 -509.788 923.41 64.7368 -23.2154 84.3961 -414.947 1255.43
22085 2 12.4844 -100.56 -17.8279 -392.425 398.843 -391.938 29.7647 -23.0929 -30.8509 -54.2468 795.508
17205 2 12.4181 -99.571 -20.2539 -336.676 316.416 -341.29 8.88911 -92.0113 -73.0303 -62.2017 686.439
26904 2 21.7014 -100.721 -19.3001 -361.006 494.458 -380.388 -67.1087 30.758 19.171 -16.8023 875.344
19859 2 19.329 -99.6189 -18.7643 -409.559 347.036 -246.495 42.1424 31.9673 -6.84445 -42.4706 695.835
22071 1 20.8058 -99.5185 -19.6027 709.209 -673.105 584.806 -14.121 -68.1756 -27.8004 -466.216 1330.85
9799 2 -21.8037 -94.2481 -18.0071 -121.691 104.144 -234.548 -57.7822 19.3973 10.7994 -61.4424 317.365
4993 1 -21.6019 -93.8659 -19.5388 183.573 -156.916 507.498 160.769 -18.1194 -112.184 -398.417 668.905
7205 2 -22.0692 -93.5855 -15.0647 -28.1064 29.2801 -217.437 -46.7283 65.4574 -38.2741 -63.5304 271.668
2327 2 -21.1109 -94.9379 -20.7284 -151.149 151.563 -292.061 -81.387 13.225 53.6343 -63.5825 427.986
29762 1 -22.1968 -93.26 -16.7098 104.236 -76.1737 387.942 93.9144 -84.9593 37.4227 -404.186 465.333
4519 2 -13.9595 -98.9977 -17.5313 -377.793 434.156 -385.922 9.00326 -12.8129 -21.9198 -59.7071 817.377
4527 1 -13.5367 -97.5076 -16.9478 645.532 -602.352 600.931 164.775 52.8693 -82.0338 -391.227 1270.26
4248 2 -14.0377 -96.8319 -15.6606 -290.844 255.682 -253.154 -95.9399 -60.1988 51.8484 -70.5773 571.019
12116 2 -13.5394 -96.4225 -18.1123 -280.253 237.009 -268.77 -105.78 18.9103 78.4348 -82.0204 561.114
29775 1 -15.0889 -95.6769 -20.639 486.562 -376.371 267.455 287.68 -194.494 -173.233 -376.087 1027.32
2196 2 -16.0649 -95.5848 -19.3329 -186.186 167.023 -191.565 -152.801 60.7573 75.286 -74.7468 474.139
7411 2 -17.2336 -94.8663 -16.8811 -186.748 148.678 -155.458 -126.53 -8.2764 36.2252 -73.4237 393.911
4495 2 -13.7627 -94.8807 -20.111 -222.066 239.824 -174.222 -76.492 85.4947 75.5538 -81.441 500.139
9700 1 -17.21 -94.7314 -15.301 420.605 -279.154 325.732 229.71 132.716 -98.1293 -378.763 819.941
27087 1 -16.69 -94.4409 -18.3102 326.129 -326.873 374.494 315.676 -95.5335 -101.524 -381.881 904.206
7410 2 -13.564 -94.2581 -15.3828 -132.697 143.689 -198.374 -60.0804 -39.6729 49.3538 -79.0099 348.874
29673 2 -17.8553 -93.8799 -19.2488 -117.059 137.312 -201.538 -151.25 96.7504 68.8617 -74.4828 451.96
7194 2 -14.4008 -97.0773 -20.9349 -338.102 217.021 -161.408 -89.2672 138.116 43.0824 -79.8155 572.711
4816 1 -12.4957 -99.1846 -18.2917 713.718 -777.566 863.033 42.243 -127.497 68.8518 -404.808 1592.87
14621 2 -12.8411 -98.8161 -19.7957 -363.091 331.688 -353.494 -19.7103 133.473 -4.78031 -71.4101 728.575
9608 2 -9.04923 -98.935 -17.0978 -160.716 271.336 -407.892 -15.5748 122.549 -25.371 -58.3397 634.248
7017 2 -12.0336 -98.131 -17.1164 -272.203 290.429 -372.392 -53.917 63.5821 -4.54753 -68.3686 635.511
17086 2 -10.252 -98.0625 -19.3057 -91.2555 214.496 -442.984 -43.5944 70.0604 -7.54577 -71.5396 587.653
9517 1 -8.5802 -97.8323 -16.0763 276.741 -482.886 676.362 55.5424 -207.88 -32.2551 -409.735 1087.34
4899 1 -10.624 -96.8082 -20.2656 113.849 -431.891 697.844 17.1999 -154.084 -3.98847 -384.263 1014.77
9438 2 -9.09772 -96.3627 -16.5106 -69.4887 218.21 -317.795 -42.6782 113.927 29.4648 -69.4963 512.709
9798 2 -11.4662 -95.706 -19.3732 -117.736 261.478 -308.314 -6.08335 65.315 45.9804 -79.7779 521.195
7201 1 -12.8499 -95.1732 -18.8383 393.471 -526.983 525.78 108.282 -103.933 -148.085 -368.39 1058.25
9506 1 -9.55129 -94.8451 -16.3265 75.9977 -377.176 584.402 79.2717 -185.079 -54.0262 -389.487 908.079
29566 2 -11.1626 -94.7999 -15.9933 -67.8775 160.94 -277.122 -22.8498 64.3229 55.2413 -74.6949 408.844
5069 2 -8.76544 -94.2759 -15.0327 -66.4833 170.344 -268.134 -48.4201 73.8609 26.1052 -70.4823 412.251
16822 2 -9.32201 -93.9804 -17.6709 -21.7521 191.214 -312.421 -16.4491 51.302 8.83538 -74.9307 447.982
27068 2 -12.695 -93.994 -17.7757 -139.095 263.261 -290.69 -32.7707 25.0866 47.8823 -82.1249 507.794
19117 1 -8.45593 -93.5722 -18.9189 54.2006 -352.16 598.827 51.126 -74.103 18.6073 -385.986 841.675
7117 1 -12.2774 -93.7375 -16.2485 196.971 -428.886 514.746 54.4979 -32.591 -103.019 -378.146 857.61
19703 2 -9.32432 -93.454 -20.2991 -43.9988 184.878 -304.249 -28.3073 58.4478 -15.1384 -73.4884 439.34
12202 2 -9.30892 -96.257 -20.9891 2.65866 224.655 -355.446 -2.70879 42.6758 -34.0838 -70.7207 515.742
12367 2 -7.32175 -97.8956 -20.5877 -42.1209 205.638 -416.143 -37.6276 14.3419 -17.5159 -69.598 547.476
7053 2 -7.19641 -94.7403 -18.6877 -53.923 203.95 -309.763 -31.8327 39.3584 1.77837 -74.1003 453.458
19496 2 -6.98805 -97.7315 -16.2194 -146.323 227.605 -354.393 -13.3402 35.6645 21.9196 -65.16 516.439
9885 2 -6.046 -99.3445 -18.7328 -160.477 277.565 -395.792 -16.121 30.9069 -21.7651 -61.4689 596.152
17074 2 -1.78779 -99.1496 -20.3071 -288.034 348.006 -421.458 19.1885 120.883 20.2463 -64.4556 743.898
14618 1 -4.65244 -99.4298 -17.8743 519.252 -664.788 801.462 8.68447 -49.1792 36.5984 -412.464 1351.75
16917 2 -5.02333 -99.2167 -16.3153 -268.169 315.988 -414.412 -1.04532 19.1101 -35.8797 -57.1604 673.065
9630 2 -3.70647 -98.1479 -18.0479 -205.296 264.955 -369.174 18.532 46.7339 28.8219 -70.8306 578.904
14307 1 -5.58527 -97.9836 -15.4031 412.618 -508.945 725.913 12.5438 0.00840252 -9.19393 -410.702 1112.15
14684 2 -2.37241 -96.7525 -19.6211 -157.865 224.891 -318.949 69.444 105.797 11.6365 -77.4707 531.562
16881 2 -4.64831 -96.6891 -15.4805 -145.594 221.938 -330.606 25.2766 27.2874 43.4074 -67.8424 497.102
9712 1 -3.11463 -96.7126 -18.2076 251.499 -432.731 649.407 -52.2379 -133.822 -94.8227 -383.577 993.805
17093 2 -1.65635 -96.5157 -17.3716 -59.3005 192.169 -330.383 51.1828 138.578 54.0648 -73.7335 528.329
17135 2 -4.3981 -95.7136 -18.1708 -107.284 206.99 -288.498 -37.5743 52.3084 35.5247 -75.6317 452.535
17008 1 -4.3547 -95.1458 -15.4479 180.844 -393.186 611.713 -60.5353 -122.446 -154.1 -390.904 943.241
16617 2 -5.57572 -94.5573 -16.398 -85.3404 203.663 -296.536 -13.1249 68.6086 38.7536 -73.6754 456.407
19501 1 -5.63507 -94.6939 -18.0118 171.25 -412.571 550.195 100.335 -135.958 -15.8765 -385.844 889.996
14431 2 -3.03169 -94.3147 -15.8581 -38.3264 204.632 -320.573 34.259 95.5875 82.1279 -74.1541 508.362
7024 1 -1.55906 -93.909 -15.1717 32.6166 -434.603 623.046 9.1892 -164.874 -94.1537 -379.555 975.274
11918 1 -1.17375 -97.6847 -20.2235 355.03 -515.161 702.127 -180.523 -274.915 -14.8133 -393.941 1226.75
24524 2 2.83705 -98.6984 -15.2843 -317.057 398.667 -426.919 15.5115 41.2195 -11.1357 -72.8364 780.482
17006 1 4.30816 -98.1639 -15.5588 631.723 -654.436 763.335 73.8574 53.2191 15.7301 -373.743 1366.16
4424 2 -0.0768587 -97.661 -18.9739 -122.528 252.907 -370.16 66.4544 183.033 5.31909 -67.0825 639.593
12111 1 1.82749 -97.374 -15.1971 433.326 -519.854 723.033 -3.18421 -168.464 14.9335 -373.258 1163.81
12198 2 0.753529 -97.1314 -16.3346 -115.925 234.298 -362.9 17.398 178.661 -5.54646 -75.9228 605.73
12086 1 -0.0938465 -96.6756 -17.67 158.143 -396.677 644.106 -114.207 -401.09 -10.2338 -385.936 1155.71
12212 2 3.27499 -96.6461 -15.6194 -255.76 209.587 -325.773 -27.9659 17.1677 -13.4694 -90.8577 507.745
17001 2 0.475298 -95.2891 -18.3672 -94.5396 168.803 -238.504 50.3504 133.617 -32.8015 -77.8187 438.612
14694 2 3.62872 -95.2987 -19.1351 -112.882 119.614 -173.293 -8.00167 -6.02287 -149.173 -77.1206 372.569
11929 1 3.79787 -95.1108 -15.3275 410.957 -524.161 479.219 78.8756 4.01097 -21.8814 -348.969 981.37
11919 1 3.07791 -94.7602 -20.623 168.409 -163.306 366.217 -59.4939 6.73848 278.134 -389.697 676.468
6924 2 0.051608 -94.109 -15.4802 -96.7957 255.525 -288.467 -58.5448 99.1259 41.9252 -83.3571 522.907
7327 2 2.5827 -94.1191 -15.6172 -177.528 298.373 -268.388 -78.1027 37.764 18.8266 -90.4659 549.198
9243 1 0.802613 -93.7704 -18.8561 255.81 -376.443 315.342 -26.6386 -124.341 85.9132 -381.6 715.249
19397 2 1.93861 -93.7524 -20.0209 -106.581 135.568 -183.579 28.8171 0.968038 -108.401 -75.0758 347.788
11914 2 4.7541 -94.9684 -16.5975 -170.119 224.295 -204.075 -0.208483 -69.1438 -53.99 -88.587 439.541
14485 1 4.91511 -95.1757 -18.2085 303.568 -334.331 379.236 30.9323 161.386 277.513 -368.899 879.179
9800 2 10.066 -99.2772 -18.967 -283.018 329.948 -411.492 -61.9849 -116.257 -28.0979 -61.9204 724.862
19786 2 7.51313 -98.3473 -18.66 -270.359 339.525 -383.906 -78.4819 -182.59 -7.60725 -66.2459 756.816
17104 1 9.00091 -98.1528 -19.2758 525.224 -601.323 672.409 198.02 344.133 65.2512 -402.143 1393.65
19508 2 5.263 -98.3524 -16.8681 -278.323 350.587 -394.28 -44.1816 -112.881 0.208985 -74.3971 725.247
16815 1 6.43846 -97.6269 -17.7654 460.708 -570.44 700.54 105.752 320.247 59.5135 -384.498 1311.47
22211 2 9.29408 -96.746 -18.4342 -203.616 267.915 -269.64 -84.1698 -139.287 -5.92421 -71.3379 580.857
12321 2 7.31691 -96.5815 -16.9594 -188.199 226.352 -274.055 -16.2377 -113.433 -15.9317 -79.853 504.945
14443 2 5.64286 -96.5135 -18.571 -202.343 210.329 -265.555 -44.8467 -105.302 -102.391 -77.9064 520.702
19227 1 8.6507 -95.7255 -17.3925 368.146 -474.881 457.152 4.1255 134.787 -11.584 -382.212 921.199
19784 2 9.4979 -95.4562 -16.0493 -136.63 218.576 -213.272 19.995 -7.80436 37.2952 -73.4845 405.985
12010 2 8.14199 -94.4704 -18.2562 -198.76 228.503 -185.181 15.3367 -65.1993 -51.8496 -79.2035 445.488
12503 2 7.05364 -94.1588 -20.8282 -216.217 170.452 -96.8725 -50.6044 -99.9681 -132.356 -77.2909 455.88
14592 2 5.77261 -93.8945 -18.7087 -195.4 210.689 -156.469 16.3825 -71.8745 -129.173 -81.436 465.805
16983 1 7.26169 -93.6471 -19.2757 427.097 -434.136 281.886 0.176476 119.295 214.057 -374.682 904.381
19292 2 9.12061 -97.7423 -20.8644 -310.456 262.468 -241.002 -96.8003 -170.658 -98.3558 -64.5847 661.648
12364 1 11.5882 -99.6358 -18.8531 627.669 -635.736 773.186 9.26425 135.835 92.7132 -411.568 1372.08
24569 2 14.3395 -99.1055 -18.9153 -344.248 268.644 -237.61 65.6325 -45.578 -21.3463 -63.9523 584.955
12302 1 13.4832 -99.329 -17.4893 701.418 -562.549 522.7 -114.107 -45.074 -29.251 -412.732 1204.73
19683 1 13.8824 -98.9283 -20.4947 621.981 -531.271 550.723 -52.5233 209.133 132.285 -401.063 1202.03
17050 2 14.0473 -99.0683 -16.0214 -349.185 309.987 -255.002 62.4922 43.5605 49.3624 -60.9231 637.192
19580 2 12.2292 -98.3952 -17.9177 -240.646 249.819 -271.439 -1.68519 -14.2552 22.5428 -64.286 508.675
19505 2 14.8949 -96.8852 -15.0523 -278.731 260.825 -237.935 7.23118 -25.3095 11.3421 -75.7623 522.722
14741 2 15.5788 -96.0054 -20.1753 -243.533 214.935 -155.606 35.8301 -1.04354 58.7833 -71.3167 437.988
19405 1 14.8131 -95.3044 -15.1771 435.408 -504.563 468.046 16.3808 96.4723 67.8996 -372.975 978.697
1824 2 16.3133 -94.7226 -15.4613 -202.306 209.465 -233.825 16.5169 -44.7855 -31.2863 -82.9585 439.659
19425 2 14.0333 -94.5181 -16.3116 -172.417 224.803 -200.346 -33.5401 -18.738 -17.967 -77.6693 418.395
17109 2 11.3462 -93.5307 -20.12 -192.067 212.917 -127.149 -23.588 -27.0563 12.8449 -72.1648 382.487
16637 2 16.8194 -95.3772 -17.9812 -248.368 212.357 -124.245 37.8551 -50.5682 49.8275 -73.9516 435.783
17077 1 16.9057 -96.3021 -19.2964 514.111 -381.213 219.161 -153.652 42.8979 -118.276 -393.179 861.882
22104 2 18.0854 -99.1431 -16.4668 -352.159 305.154 -258.304 31.9063 18.031 -36.3213 -55.8353 622.225
27157 1 17.832 -99.0722 -14.8963 643.743 -640.903 659.027 7.33661 -75.8369 72.6587 -412.713 1305.16
12110 1 18.6125 -98.5264 -17.7964 663.061 -468.938 378.046 -117.542 -12.3318 48.6747 -421.248 1043.57
17190 2 21.4266 -98.1156 -19.1256 -253.488 195.273 -255.967 66.0541 38.6986 -19.3245 -45.8215 470.327
29301 2 17.469 -97.6864 -18.6222 -293.848 196.838 -129.215 77.3325 0.452655 16.0159 -65.4229 453.657
24657 2 19.9163 -97.682 -17.3889 -263.671 173.969 -229.142 61.3936 15.245 -50.5865 -59.4584 444.175
1928 2 22.7411 -97.3179 -16.9118 -147.577 176.827 -321.807 27.8996 23.7711 -121.939 -55.5175 490.665
24409 1 21.3755 -97.1921 -17.8051 372.012 -317.868 518.934 -169.094 -69.3225 150.057 -421.299 875.572
27070 2 18.1604 -95.8473 -20.2549 -229.276 182.179 -151.691 115.554 -35.9378 34.8087 -70.545 436.99
29298 2 21.4167 -95.591 -18.0354 -139.205 155.406 -213.375 122.425 -15.2367 -80.9791 -65.675 423.652
27201 2 18.7916 -94.8448 -16.344 -141.075 192.057 -204.604 42.4513 -56.4685 -19.6416 -75.5011 390.265
14416 1 17.2667 -94.5222 -16.7575 401.788 -408.062 374.455 -50.947 114.122 0.0869533 -376.968 825.425
21988 1 18.9894 -94.5389 -20.7622 359.371 -368.358 328.321 -231.429 93.1103 -30.1332 -394.338 835.086
22012 1 19.5712 -94.3141 -15.0901 197.178 -358.744 460.374 -87.2756 72.4257 70.4625 -384.241 760.342
17179 2 19.7906 -94.1645 -19.3993 -126.886 137.782 -161.134 115.114 -52.2776 -9.43892 -71.0653 358.477
2030 1 21.2481 -94.1929 -18.6903 192.189 -218.432 361.822 -276.875 110.34 94.0412 -392.706 748.382
22361 2 21.2096 -94.1939 -15.3067 -90.9354 157.335 -213.774 46.3422 -56.9673 -54.7145 -71.2321 363.847
14433 2 22.2628 -94.0808 -20.002 -73.097 52.4685 -179.956 162.462 -42.4752 -29.2606 -72.2483 357.444
16969 1 22.7717 -94.1785 -14.8569 267.1 -354.017 379.799 -43.3768 118.045 167.392 -398.316 774.594
27095 2 26.0787 -99.3105 -15.972 -410.544 387.333 -467.394 -31.6617 -100.568 -40.8883 -48.2282 850.625
29389 1 26.6866 -97.8548 -16.3843 724.252 -588.662 727.102 -36.5742 200.018 259.784 -423.185 1433.18
27246 2 27.6054 -97.7192 -15.0327 -320.08 278.983 -388.24 50.7138 -60.9128 -77.7898 -57.3057 664.345
19688 2 27.4803 -97.2128 -17.6479 -366.389 319.049 -314.181 24.0123 -105.425 -165.444 -52.7854 744.28
29569 1 23.8724 -96.9083 -15.8736 327.005 -399.465 630.41 14.9559 45.0277 298.057 -411.377 1055.22
21898 2 25.427 -96.8393 -16.3727 -248.231 230.06 -304.287 30.7894 -72.28 -183.652 -62.0156 615.156
4599 1 27.5581 -95.6531 -17.8473 597.009 -460.533 457.883 -115.005 152.513 392.246 -405.259 1249.66
24504 2 23.3595 -95.5852 -15.1761 -156.946 204.586 -249.587 -15.0507 -26.1008 -112.638 -65.9876 462.131
29792 2 27.82 -95.0054 -16.3613 -259.636 218.6 -185.929 116.473 -23.9514 -150.881 -65.4052 556.423
24558 2 26.1982 -94.9668 -18.5269 -230.644 172.326 -226.494 55.0712 -83.2027 -180.427 -72.369 536.896
5 2 28.5387 -94.8858 -18.8018 -213.507 141.165 -237.139 39.2992 -61.2234 -120.254 -69.5684 440.448
24675 1 28.2282 -94.321 -14.9607 409.551 -436.352 429.536 -309.771 14.0982 186.443 -405.85 1060.95
14510 1 25.9553 -93.5886 -19.3053 239.45 -112.838 464.112 -117.688 147.224 143.378 -365.612 649.595
2223 1 28.725 -94.0504 -20.1211 246.138 -123.108 506.054 -71.621 174.459 41.3959 -376.576 641.646
29 2 24.2251 -98.1091 -14.9034 -244.812 232.037 -381.837 -4.94963 -54.451 -98.2886 -60.6737 591.145
4740 2 34.3007 -93.8044 -15.5405 -54.1142 64.0173 -325.403 4.81016 -35.8889 -48.8484 -57.654 361.514
27562 2 33.5782 -94.2264 -20.7763 -32.3605 27.838 -280.778 14.5592 13.4623 38.3813 -62.32 293.068
29289 2 34.2833 -93.5004 -18.178 -42.6608 24.0532 -233.254 4.28798 -5.6448 17.5887 -62.5126 233.603
7113 2 -23.7586 -93.1505 -16.8404 -28.5635 11.538 -232.729 -40.802 -3.72256 -15.9742 -64.5857 239.333
9473 2 -20.2243 -93.0158 -19.4189 -85.5692 95.6124 -221.676 -80.8907 49.2763 81.5866 -74.475 350.565
27633 2 -22.7436 -92.8 -19.962 -44.7065 25.1485 -234.73 -61.854 15.3996 62.4067 -73.105 279.528
9894 2 -21.3846 -91.8739 -16.8373 -43.4155 76.2119 -184.647 -21.1241 57.3674 -1.39837 -72.5242 249.74
4983 1 -23.6573 -91.4884 -20.2131 40.9382 -63.5022 399.13 20.1659 -50.6045 -112.067 -384.33 472.439
26871 1 -20.5746 -90.4673 -16.6919 145.248 -255.301 364.326 26.0573 -129.405 -1.4994 -381.574 590.311
7685 2 -20.3586 -90.4061 -15.0635 -101.393 127.75 -171.386 -18.437 54.2654 -43.4401 -75.1203 298.26
29648 2 -23.0993 -90.1656 -19.3397 -22.2728 118.203 -241.549 6.29861 15.6749 63.4066 -75.1763 333.97
1640 2 -21.4002 -89.257 -17.4739 -37.4889 135.001 -247.355 -25.7355 41.9525 38.9834 -76.615 349.03
2608 1 -22.3042 -88.8238 -18.7871 62.9318 -329.246 522.839 42.3238 -18.4578 -108.175 -383.622 766.28
24612 2 -21.1101 -88.5126 -19.8684 -113.43 160.634 -185.196 -15.4491 28.1865 26.0356 -77.5979 324.134
7419 1 -19.5873 -88.2656 -20.325 345.097 -322.022 223.413 29.2017 -97.6013 -25.5295 -377.624 641.692
4955 2 -23.1942 -87.4331 -18.5571 -17.7601 191.347 -264.851 -46.8063 -31.5613 61.8778 -74.3076 421.302
2035 2 -19.2224 -90.7293 -17.6673 -119.888 176.913 -190.05 -53.1214 68.3092 36.5176 -80.1918 374.57
1944 2 -15.7714 -93.1333 -18.0349 -151.232 214.551 -226.154 -122.762 27.2 40.3186 -80.7876 468.107
29654 1 -18.831 -93.0038 -20.1958 240.22 -268.113 400.005 225.632 -168.784 -175.644 -383.191 834.208
14780 2 -14.1045 -91.7153 -19.3861 -119.556 249.985 -241.394 -51.3521 7.789 16.7078 -77.0657 453.167
4732 1 -15.2582 -91.6444 -18.2009 211.216 -530.619 513.159 167.86 -24.8347 -75.5844 -376.009 984.379
2132 2 -18.2636 -91.5359 -20.0696 -145.203 175.799 -197.617 -87.0159 83.6104 41.3685 -77.2024 414.048
12271 2 -14.4484 -90.8073 -17.091 -122.455 261.424 -260.324 -86.1806 -6.02214 68.881 -79.251 505.885
9869 2 -16.6389 -90.7809 -18.3778 -108.253 236.224 -248.624 -93.1198 53.0604 44.5238 -79.3512 476.582
2524 1 -18.1144 -90.5473 -18.8184 257.635 -430.485 428.091 153.935 -155.877 -117.892 -374.888 897.516
4900 1 -13.6263 -89.4178 -17.0982 227.356 -483.745 483.414 238.216 -8.65586 -163.801 -381.135 1002.13
27167 2 -18.5399 -89.0917 -19.4507 -163.068 179.458 -165.985 -22.3957 70.4058 38.4868 -80.3808 373.029
7772 2 -13.6791 -88.4996 -15.8391 -106.516 249.967 -238.834 -108.871 31.1574 81.7304 -78.1634 500.268
9814 2 -14.3224 -88.6377 -18.4092 -152.749 240.781 -202.008 -105.757 -22.3973 41.2187 -76.1062 465.653
7484 2 -16.1522 -88.3942 -15.2779 -166.321 267.066 -241.751 -44.5839 41.0878 43.1381 -85.9215 492.763
12289 1 -17.7083 -87.9239 -15.4369 361.888 -538.364 434.8 -42.3238 -113.578 -100.443 -361.694 977.624
9964 1 -15.0526 -87.5271 -19.2858 336.126 -414.844 236.264 106.261 42.773 -51.068 -384.179 739.001
7951 2 -18.1515 -87.681 -16.9222 -161.769 222.49 -203.774 13.0116 94.0908 70.5091 -85.8967 455.568
9635 2 -15.0398 -87.7597 -20.8242 -153.42 159.145 -123.359 -55.3465 -22.8701 5.9188 -72.2801 316.336
14405 2 -7.57016 -92.2116 -19.0038 -63.495 175.419 -280.885 -18.963 39.4493 1.99285 -72.8212 402.536
179 2 -11.6653 -92.2546 -16.2506 -84.6471 221 -254.529 -35.2096 36.0834 55.1074 -75.9956 436.967
29407 2 -11.4674 -91.5901 -18.7653 -101.559 180.673 -256.159 -38.2696 11.8586 -6.58769 -77.0015 390.044
9795 1 -12.5466 -91.5376 -19.9457 293.474 -427.531 417.344 73.4718 10.9703 49.1441 -382.861 805.173
12099 1 -11.097 -91.0368 -17.322 126.484 -361.441 532.537 64.8411 -86.2918 -108.115 -385.576 819.202
4281 2 -9.47402 -90.801 -17.0793 -40.0997 176.724 -267.334 -0.0211208 58.805 60.4496 -71.5015 411.406
4622 1 -7.98175 -90.3732 -16.6385 93.9767 -385.169 539.645 -8.57255 -132.406 -108.892 -394.461 854.475
11913 2 -8.3621 -89.9667 -15.123 -30.2668 181.597 -302.136 -10.0444 44.0027 51.143 -71.346 436.299
7379 2 -12.6348 -90.019 -20.5287 -161.849 163.848 -184.525 -77.1346 -13.7946 -53.7582 -73.3924 375.59
2300 2 -12.0483 -89.8016 -17.2038 -70.1372 181.623 -251.482 -71.5227 24.0072 71.722 -73.368 417.651
2016 2 -7.47789 -89.1791 -17.5964 -75.7948 204.048 -243.72 22.8015 50.5442 15.9911 -67.7636 404.344
19902 2 -8.31493 -89.0283 -19.9285 -87.9403 179.953 -236.308 45.9353 50.2965 -9.50925 -65.2226 384.339
2307 1 -7.36683 -88.2351 -18.879 201.671 -397.599 464.689 -68.8929 -70.9498 -8.4907 -404.413 784.524
12309 2 -5.26485 -93.3733 -18.8576 -94.3813 199.8 -264.06 -28.5242 70.0419 1.62904 -73.4583 427.102
12363 1 -1.46167 -92.7352 -20.7189 147.281 -456.635 606.49 -54.2046 -99.5694 127.572 -393.692 969.687
11852 2 -1.45047 -92.4417 -16.0096 -61.0701 273.779 -311.223 -12.2797 82.1713 39.7922 -79.8247 532.844
6915 1 -6.15686 -92.3015 -19.7482 163.705 -395.324 541.996 8.46467 -57.9276 47.8596 -390.25 827.192
12216 2 -2.51244 -91.5021 -20.5914 -75.4818 222.705 -278.543 13.1894 61.7403 -47.6428 -68.0206 457.675
20025 2 -6.66716 -91.365 -16.5009 -65.9642 199.973 -273.196 -13.0811 83.518 54.3069 -71.401 446.167
17276 2 -3.9208 -91.4039 -16.2314 -45.1866 243.17 -321.78 22.3628 93.461 33.9223 -74.5775 520.162
12316 1 -5.35102 -91.275 -15.5543 76.8059 -455.954 648.236 -16.6826 -141.734 -79.2683 -387.567 997.372
9616 1 -2.36927 -91.1742 -16.1831 105.164 -492.638 628.961 6.89515 -159.248 -24.8737 -377.309 1011.4
1833 2 -5.19839 -91.0726 -19.9713 -106.332 227.97 -254.863 33.5323 47.9318 -26.4193 -68.8048 442.53
17202 2 -1.71876 -90.2911 -17.4116 -117.826 209.799 -201.975 -24.2186 70.9121 -11.7119 -76.509 399.056
14603 2 -5.30523 -89.6359 -15.2049 -26.4496 189.077 -327.768 -5.62524 41.2356 23.3915 -75.1488 457.191
17465 2 -3.62771 -89.0638 -20.1966 -132.631 202.917 -186.373 24.3361 59.5285 -33.3366 -66.9849 386.336
5003 2 -5.87325 -88.0294 -19.5012 -109.726 177.353 -221.34 35.2892 33.5881 -5.02005 -66.0857 366.211
14411 2 -1.63771 -87.8783 -16.7171 -136.094 214.338 -235.446 -34.8227 39.6481 -62.9921 -80.4621 433.298
7299 1 -4.27964 -87.7197 -19.5809 246.789 -344.595 358.721 -25.649 -107.793 82.3307 -398.589 696.868
17170 2 -3.76338 -87.5979 -15.2282 -58.0966 197.219 -289.807 -43.7799 10.5874 9.20563 -77.7599 429.39
4722 2 -3.83011 -87.5706 -18.0567 -107.041 156.185 -195.933 -12.9045 64.9808 -57.4045 -72.1025 351.626
11837 2 -2.10121 -90.2882 -14.7732 -42.1903 209.531 -363.999 -39.6879 53.3262 -1.32479 -84.01 511.069
7420 1 -3.13415 -87.1412 -16.6529 203.269 -387.292 464.191 64.7556 -87.1462 93.7819 -381.809 795.412
7204 1 -3.81749 -90.5917 -20.7767 223.76 -446.865 482.121 -60.2786 -122.706 109.948 -400.304 884.358
7423 2 -0.527315 -93.133 -19.448 -121.457 220.013 -207.531 19.476 67.8291 -33.5692 -73.2791 414.395
14679 1 1.26452 -93.1961 -15.9315 311.639 -607.86 471.642 160.058 -123.023 -49.2252 -361.47 1071.32
9428 2 1.3008 -93.0239 -17.57 -167.762 260.472 -159.782 -41.7523 43.3849 -5.82137 -79.9649 437.046
11934 2 1.41747 -91.6894 -15.3258 -158.286 275.156 -269.597 -79.2329 50.4682 -16.4452 -89.7144 525.162
14872 1 -0.780025 -88.9371 -17.5066 285.502 -401.656 346.933 74.2224 -47.2939 154.611 -377.843 783.021
12002 1 1.30574 -90.0725 -15.3924 274.529 -457.19 511.413 131.521 -40.9302 114.748 -357.41 928.052
2118 2 4.03896 -89.6517 -17.3248 -159.367 217.197 -151.655 -22.0025 -48.6145 -71.0462 -79.6303 403.288
7400 2 3.59087 -89.55 -20.1175 -153.275 161.199 -125.95 -62.2548 -35.2111 -27.1802 -75.9152 329.561
17084 2 2.75193 -89.4501 -15.1793 -109.63 246.542 -240.169 -7.94483 -23.4818 -77.1503 -85.2826 458.36
24400 1 4.22687 -89.4101 -15.769 232.819 -510.158 412.82 -16.8941 80.5692 181.523 -370.79 915.06
21706 2 0.495485 -89.4153 -16.6369 -138.849 220.453 -205.924 -51.2446 4.84624 -83.5928 -83.276 431.983
9410 1 4.46984 -89.1326 -18.8107 349.974 -379.132 253.125 113.245 74.1611 39.9984 -379.404 728.103
19524 2 1.26723 -88.6707 -20.6495 -161.468 185.237 -149.895 -58.2506 -0.717616 -50.3622 -73.0439 366.218
12414 2 -0.391916 -88.2215 -18.8739 -145.608 186.1 -127.056 -20.5655 -8.74838 -82.4693 -74.1623 355.137
17091 1 0.134427 -87.5607 -20.2934 323.685 -343.948 259.366 71.3953 -10.0127 125.61 -387.943 685.459
17385 2 4.36397 -87.4973 -18.6619 -167.468 225.257 -173.036 -47.4663 -6.88829 -6.27507 -77.427 404.315
24513 2 9.32543 -93.2346 -14.8657 -103.353 185.668 -193.583 40.1313 -5.44142 -12.3085 -81.664 350.896
12113 2 4.88654 -87.9577 -15.461 -147.915 284.59 -210.852 10.371 -5.95362 -39.8955 -80.1693 472.701
24493 1 8.26134 -91.9953 -14.9424 230.938 -394.38 344.394 -70.1577 39.4411 76.4026 -368.519 715.392
17013 2 10.328 -91.8678 -18.1747 -126.601 154.128 -140.014 17.8242 -23.1196 -18.2487 -77.2552 293.785
11997 2 7.53562 -92.0773 -19.3842 -235.378 189.381 -111.951 6.09214 -15.0572 -65.7739 -80.0929 396.23
26897 2 8.42259 -91.2256 -16.3829 -146.119 197.706 -138.569 17.0782 -13.2325 -47.7797 -80.8271 352.032
21901 1 9.41218 -90.6533 -17.5082 267.451 -354.655 297.803 -34.0134 19.6513 57.8446 -376.889 649.22
11810 1 7.28241 -90.4566 -19.4448 393.336 -342.91 195.701 59.6296 22.0531 54.0688 -377.083 675.653
19306 2 8.62007 -89.9007 -18.694 -160.829 194.739 -134.167 2.18313 3.79869 -18.0054 -77.2038 344.513
22195 2 10.2956 -89.4909 -16.8818 -141.618 211.921 -163.007 14.3658 -7.75465 -32.0846 -78.8163 369.996
17096 2 5.88559 -89.8491 -18.866 -185.29 186.722 -123.98 -57.4874 -34.5593 -19.2208 -78.6643 365.99
17460 2 9.53429 -87.1096 -17.5265 -136.851 233.441 -187.163 -22.7797 -19.2545 -53.8546 -77.0247 411.883
14501 2 5.15653 -90.5172 -15.0058 -113.388 258.376 -217.086 -7.26837 -19.6883 -93.3001 -83.5421 463.626
5118 2 6.77272 -92.4764 -14.6885 -106.852 216.951 -196.94 28.5657 -38.9125 -25.3896 -85.1958 388.664
21987 1 10.795 -87.9509 -17.0403 279.98 -445.683 341.771 28.0368 37.6311 91.4096 -379.054 779.049
17489 2 12.5494 -93.1387 -17.8295 -127.12 166.287 -134.183 -32.6746 24.146 -12.3052 -73.8087 305.968
12183 1 13.6324 -93.0686 -16.7196 256.039 -346.886 362.808 104.558 -0.20752 73.9414 -377.838 698.921
17187 1 11.6439 -92.4344 -18.8856 310.171 -321.693 238.181 10.7406 16.0569 4.95826 -386.445 600.116
24606 2 13.1336 -92.1418 -15.5016 -109.373 186.287 -209.357 -50.9002 -38.2922 -36.0188 -82.1053 378.202
19403 2 14.9182 -92.1687 -17.29 -138.763 173.477 -203.34 -36.9348 -8.14192 -48.599 -78.7701 364.973
14896 1 16.4128 -91.618 -17.2436 291.662 -352.078 356.241 -11.2376 87.9933 131.413 -377.898 731.819
17039 2 12.33 -91.1752 -19.5806 -180.886 151.008 -103.413 7.45331 -9.46378 -29.4087 -74.8778 305.734
27349 1 12.8588 -90.0349 -20.5665 349.773 -273.421 203.316 -21.783 22.203 34.2551 -385.808 570.064
19387 2 13.8388 -89.6845 -15.1144 -134.147 216.771 -206.127 -25.0579 -42.9904 -26.1225 -80.5306 403.806
12324 2 13.6438 -88.9328 -19.7313 -164.456 146.403 -130.469 -18.2459 -31.9214 -10.5197 -75.0433 302.673
17019 1 14.709 -88.4272 -15.6736 236.283 -421.44 407.509 35.0957 31.5419 48.8342 -381.509 767.053
27090 2 14.4259 -88.4263 -17.2312 -137.832 183.99 -155.798 -31.5528 -22.9043 -40.9665 -76.0659 345.354
17286 2 12.0519 -88.0539 -18.0093 -182.106 203.922 -152.323 -17.4502 -25.4369 -36.5631 -77.9186 381.146
22182 2 16.244 -88.1726 -15.2132 -95.9306 185.344 -223.831 0.080173 -13.3222 -5.72376 -73.8406 363.428
14882 1 13.5874 -87.995 -18.4953 345.949 -348.716 283.667 53.1597 71.3237 61.8346 -382.454 691.653
7427 2 11.434 -87.1917 -15.7439 -164.109 216.063 -155.114 -21.5456 -14.9981 -34.1672 -78.1153 383.094
24764 2 16.6199 -88.7687 -20.5436 -140.957 122.437 -173.79 -0.0897604 -42.1734 -42.3382 -72.4727 299.693
12223 2 16.7693 -90.4709 -18.3269 -136.543 139.048 -128.503 7.47419 -43.613 -80.9034 -74.286 315.134
7115 2 16.8705 -91.2109 -15.7944 -124.373 193.646 -238.654 20.9902 -27.4919 -23.627 -80.6243 394.719
24378 2 17.2367 -93.0169 -17.3571 -175.139 153.92 -182.514 16.1602 -58.6727 -10.0576 -78.3755 349.536
17100 2 21.4476 -92.7244 -18.0412 -59.8678 91.3964 -184.074 82.9774 -94.9487 -22.4881 -74.0605 326.059
19588 1 22.0151 -91.2615 -18.3259 91.2759 -196.906 383.786 -63.6763 188.768 -4.15038 -386.076 609.936
16817 2 18.1364 -90.8189 -20.4108 -144.947 136.121 -162.802 -9.15857 -51.1015 -47.9968 -71.2295 315.172
19500 2 20.9618 -90.0699 -18.2952 -61.6252 130.313 -190.301 9.3484 -71.6606 -13.9223 -71.4238 307.156
15064 1 17.5339 -89.6479 -19.4807 271.922 -267.673 270.228 -18.2158 49.1144 117.522 -390.64 583.025
19761 2 18.7569 -88.8386 -18.9063 -116.494 142.74 -156.668 24.6705 -17.9593 -46.1986 -70.643 297.367
24501 2 19.6767 -88.6877 -16.4487 -114.3 140.79 -189.466 38.6497 -45.6193 -28.362 -71.0561 320.987
27097 1 20.0577 -88.7271 -17.9993 195.505 -286.823 377.553 -57.7452 93.3595 70.6477 -394.97 636.171
22075 2 21.0582 -87.5587 -18.4299 -93.6266 148.32 -218.046 31.6524 -36.3941 -10.9566 -67.4339 333.857
22299 1 19.6638 -89.0249 -14.8232 206.461 -249.898 366.539 -95.6866 13.1842 -25.0291 -390.742 580.353
29601 2 22.7264 -91.6166 -19.715 -35.6932 63.9793 -183.511 45.6594 -61.5814 -17.8917 -77.4602 255.166
17213 2 18.7961 -92.9198 -14.7609 -115.127 163.793 -231.917 56.1186 -14.5387 -15.8992 -79.3163 367.222
10 2 24.6284 -93.2932 -20.0081 -50.6798 2.26429 -224.428 87.3281 -46.9882 -30.453 -83.1529 272.901
27371 2 27.1557 -93.2566 -20.5004 -148.25 26.5051 -246.829 31.2204 -63.7663 -8.23867 -89.1272 269.834
19532 2 23.1448 -91.0576 -17.2479 -65.3662 88.4235 -185.431 47.8853 -117.871 20.9192 -74.48 326.197
22367 2 23.5928 -93.0257 -15.6127 -115.187 143.032 -166.815 60.8793 -104.244 -71.9418 -69.5422 376.723
27299 2 28.4723 -92.825 -15.3029 -165.955 135.037 -168.444 127.662 29.9609 -44.4577 -68.5488 385.831
2032 1 23.2284 -92.8826 -20.5889 38.1736 -16.4673 368.982 -209.141 46.2086 28.3039 -376.8 520.12
14598 2 26.3309 -92.6087 -18.1676 -155.478 75.7138 -195.89 60.7868 -42.4183 -21.63 -83.7546 286.901
29761 1 23.9179 -91.4477 -15.885 183.09 -206.113 310.366 -145.201 229.547 -47.1184 -393.354 667.233
27079 2 25.4515 -91.1707 -16.0974 -79.729 97.7387 -161.883 79.008 -76.1083 37.4973 -71.2556 305.199
20152 1 26.463 -91.2358 -17.3713 211.891 -219.305 332.587 -207.709 81.8437 -55.7737 -376.613 641.403
24611 2 27.9285 -90.9837 -16.8678 -111.607 120.297 -143.463 126.143 19.3133 13.7426 -76.465 334.072
24972 2 25.9662 -90.2057 -18.4966 -100.821 150.891 -211.725 93.722 -49.9274 44.4905 -81.5786 378.606
29667 1 25.5979 -89.677 -19.9663 175.008 -335.161 436.151 -103.689 28.9279 -2.58012 -371.431 704.613
22267 2 24.1582 -89.11 -20.3265 -65.2458 156.197 -192.212 -0.635978 -13.6625 -17.438 -75.054 307.81