ITEM: TIMESTEP
680000
ITEM: NUMBER OF ATOMS
29952
ITEM: BOX BOUNDS pp pp pp
-2.5093087473165852e+01 3.5078381815859899e+01
-8.2401210038330532e+01 9.2386504380330535e+01
-2.0985542515027589e+01 3.4853395661184415e+01
ITEM: ATOMS id type x y z v_StrAtomXX v_StrAtomYY v_StrAtomZZ v_StrAtomXY v_StrAtomXZ v_StrAtomYZ c_PEAtom v_VMS
4955 2 -22.9046 -77.4377 -18.9235 3.93373 101.838 -185.222 -42.8107 -13.9836 64.4525 -81.409 287.109
7419 1 -19.3439 -78.2247 -20.4904 199.269 -243.567 170.714 43.8865 -160.576 -31.8716 -366.173 520.052
24612 2 -20.7956 -78.6505 -19.9412 -52.9565 108.133 -149.331 -25.6215 51.1505 15.4285 -84.1153 247.579
2608 1 -22.1228 -78.8977 -18.9369 -0.64753 -226.263 412.891 73.4983 -51.3468 -79.1307 -371.255 598.429
1640 2 -21.404 -79.3673 -17.5406 -4.85881 110.527 -198.008 -37.7263 38.007 26.0685 -80.2626 289.049
29648 2 -22.9778 -80.2488 -19.4404 0.435082 96.7933 -195.849 -23.1002 27.1365 42.452 -81.0313 275.577
26871 1 -20.4597 -80.5105 -16.8701 117.581 -235.842 293.492 64.2492 -128.36 31.5633 -373.974 531.813
4983 1 -23.4092 -81.4377 -20.4485 -3.55538 -78.7203 335.011 65.5656 -83.516 -65.1309 -372.898 438.489
9894 2 -21.3278 -81.8291 -17.1243 -29.8377 61.8535 -139.01 -45.4489 60.6697 -17.3461 -77.9674 220.177
27177 2 -24.9158 -82.0888 -20.4131 38.1055 -27.0413 -163.834 -17.9014 32.3663 40.9985 -78.8982 202.521
7685 2 -20.1908 -80.5615 -15.2723 -88.4962 120.493 -135.201 -54.1555 32.4501 -51.7842 -78.9913 274.993
2035 2 -19.0114 -80.6013 -17.7397 -90.0727 170.009 -161.733 -39.5813 60.492 13.7703 -84.1402 328.119
10187 2 -18.8305 -76.8617 -19.8172 -70.2597 121.433 -89.0194 -8.11348 107.447 33.9626 -84.4062 281.046
2583 1 -17.8328 -76.7449 -18.4882 128.413 -279.03 261.89 -7.02624 -201.106 -161.027 -357.926 661.421
7326 2 -16.3107 -77.0329 -18.7888 -90.2283 135.266 -119.04 -1.46543 51.4705 70.2352 -89.3255 284.478
9964 1 -14.8712 -77.551 -19.3389 253.458 -312.188 230.55 87.1192 -7.43967 -104.373 -362.477 602.61
7951 2 -17.9376 -77.6936 -17.1537 -75.3982 177.402 -180.604 27.5741 87.2445 81.5985 -89.7364 382.966
12289 1 -17.6206 -77.9496 -15.6102 193.898 -459.613 418.202 -100.733 -82.1569 -81.9768 -356.732 833.562
7772 2 -13.6714 -78.7846 -15.6858 -98.2795 237.398 -203.627 -109.574 56.2147 64.995 -85.3491 466.168
9814 2 -14.1826 -78.6784 -18.2939 -124.065 197.9 -188.159 -98.7465 8.18051 64.3195 -86.0512 412.638
27167 2 -18.3178 -79.1682 -19.7536 -89.0959 150.183 -158.822 -19.0917 87.6432 38.0138 -84.8263 327.526
4900 1 -13.5838 -79.5337 -17.1012 204.306 -483.672 423.96 235.777 -64.847 -157.726 -367.391 962.652
7484 2 -16.129 -78.5148 -15.3661 -110.549 262.831 -215.933 0.557912 39.125 28.0523 -88.9129 443.645
2524 1 -17.9857 -80.6029 -19.105 173.525 -402.909 392.83 110.382 -150.877 -80.8837 -366.462 794.517
9869 2 -16.4193 -80.8927 -18.8466 -62.0846 239.228 -254.119 -57.171 61.9066 42.7806 -83.1747 460.784
12271 2 -14.4099 -80.9446 -17.24 -87.6081 276.771 -237.502 -74.9259 25.1535 36.8063 -82.3628 482.351
4732 1 -15.0605 -81.7042 -18.5173 117.408 -539.159 517.637 143.604 -67.2142 -65.8697 -369.412 970.813
2132 2 -18.4323 -81.6262 -20.2603 -106.528 171.942 -156.783 -76.1049 75.8055 42.1873 -82.9765 366.087
14780 2 -13.8552 -81.7813 -19.6088 -76.6219 242.695 -230.947 -52.154 25.2256 19.5156 -81.9765 431.59
9635 2 -14.9843 -77.9376 -20.9167 -104.904 113.929 -92.9041 -46.1514 2.12306 19.1817 -81.2166 230.029
2324 2 -8.20469 -76.7759 -18.6607 -76.5431 201.006 -207.942 -48.1065 9.97376 10.3471 -73.4748 371.93
2307 1 -7.42754 -78.2009 -18.8987 158.433 -343.192 394.333 13.9938 -82.4883 -16.0279 -382.353 668.865
19902 2 -8.09897 -79.0981 -20.028 -68.4599 143.062 -183.794 7.85513 66.73 -13.1741 -76.7175 310.65
2016 2 -7.52568 -79.0055 -17.5753 -61.3394 165.897 -206.933 -18.846 46.634 25.4497 -79.8026 339.781
2300 2 -12.0392 -79.9632 -17.2856 -49.9111 205.62 -213.565 -104.567 47.0333 65.5733 -80.8772 431.551
11913 2 -8.37342 -79.8965 -15.1876 -36.0712 181.097 -227.297 -21.1474 17.5462 46.8642 -81.2831 366.212
4622 1 -7.95771 -80.3401 -16.6816 70.2352 -364.523 427.939 19.1175 -83.5467 -98.9764 -371.513 723.814
4281 2 -9.37806 -80.9261 -17.1972 -29.9227 190.355 -214.572 -20.6535 56.3034 49.027 -81.1016 375.889
12099 1 -11.01 -81.2089 -17.406 93.8678 -402.587 440.334 112.563 -113.746 -71.4103 -371.885 794.125
29407 2 -11.3046 -81.5446 -18.9097 -72.6185 198.247 -224.369 -59.9389 36.5045 -6.57869 -83.2359 390.392
9795 1 -12.341 -81.5551 -20.1832 209.175 -429.731 393.6 103.187 -28.0495 44.8314 -370.699 774.839
7379 2 -12.428 -80.1365 -20.882 -120.605 159.189 -158.499 -85.4142 5.99511 -42.4986 -80.9235 343.127
179 2 -11.5805 92.2762 -16.6164 -75.485 235.501 -204.932 -44.051 51.5414 22.4966 -82.1597 411.138
14405 2 -7.12294 92.3939 -19.3275 -60.2983 207.849 -259.656 -12.7547 54.6968 -1.24663 -86.5204 417.818
7420 1 -2.88682 -77.2046 -16.7512 85.7522 -315.272 402.745 -8.76116 -149.688 40.7174 -370.09 678.86
4722 2 -3.55171 -77.4376 -18.1898 -58.1522 134.11 -162.634 3.91899 85.3931 -52.7317 -77.5811 313.421
7299 1 -4.32038 -77.4525 -19.6218 192.709 -309.419 300.614 -38.4 -107.485 129.508 -386.909 638.246
17170 2 -3.6433 -77.8295 -15.4902 3.94709 122.656 -242.317 -3.45727 48.4336 39.3098 -85.5105 340.119
14411 2 -1.41566 -77.8938 -16.7858 -78.2411 162.052 -188.466 7.73005 48.381 -18.0718 -86.9492 323.354
5003 2 -5.90869 -77.5798 -19.3409 -103.184 163.609 -183.595 14.7767 30.9064 -34.1119 -74.9134 325.744
17465 2 -3.83459 -78.7284 -20.4739 -85.0162 148.205 -149.035 27.5539 52.821 -67.3364 -73.9334 312.525
17202 2 -1.54331 -80.256 -17.5842 -42.4627 153.35 -169.92 11.4296 59.7646 42.1408 -84.8079 309.808
12216 2 -2.07913 -80.6352 -20.4648 -19.3521 168.287 -207.034 36.5088 32.9703 -49.7048 -75.8703 346.873
9616 1 -2.28914 -81.1221 -16.4353 -13.7455 -388.029 506.451 -61.776 -167.369 -138.127 -361.793 870.698
1833 2 -4.73244 -81.1153 -20.0984 -77.9789 223.129 -230.69 26.2065 47.9883 -35.4951 -80.7643 415.594
12316 1 -5.3394 -81.2739 -15.7554 50.8083 -392.771 476.028 -87.2364 -114.034 -106.3 -366.052 813.593
20025 2 -6.75961 -81.4043 -16.4585 -50.1625 201.591 -214.167 19.1226 49.0963 59.8651 -83.789 388.131
17276 2 -3.88247 -81.3257 -16.44 -3.52116 192.216 -247.733 47.7241 80.4473 72.0585 -85.0121 433.104
7204 1 -3.61396 -80.253 -20.9302 104.383 -345.608 381 -42.2611 -90.2331 168.649 -384.088 720.136
12363 1 -1.22133 -81.9964 -20.7606 13.0817 -363.817 541.313 -102.719 -12.1384 141.425 -377.361 843.96
6915 1 -5.62964 -82.4436 -19.9611 141.615 -441.385 539.989 -3.94929 -96.2378 45.3553 -362.399 874.555
14603 2 -5.30091 -79.7683 -15.2658 2.52144 134.881 -273.584 17.7396 50.3966 69.7097 -84.8538 391.714
11837 2 -1.7738 -80.3196 -15.0684 2.60862 148.753 -278.829 -0.089238 73.2207 36.5043 -91.6387 402.216
14872 1 -0.599544 -79.0143 -17.6692 153.344 -274.006 258.403 -6.78649 -21.9267 36.9412 -365.318 494.204
17385 2 4.3502 -77.4822 -18.9108 -101.496 151.373 -124.521 -32.7886 -37.3125 10.5152 -81.2597 279.337
17091 1 0.303914 -77.7642 -20.4984 228.703 -299.789 233.548 12.3714 -1.75905 140.108 -382.376 584.163
12414 2 -0.273091 -78.3483 -19.1192 -86.2169 140.331 -100.176 19.2066 -18.8979 -55.9647 -78.2891 257.401
9410 1 4.56415 -79.1426 -18.9852 169.641 -228.066 188.226 69.7364 107.264 12.6446 -370.453 464.213
24400 1 4.45527 -79.5372 -15.9797 138.409 -370.783 352.03 -11.8686 129.135 116.264 -362.046 710.413
21706 2 0.750038 -79.4367 -16.8501 -83.913 149.051 -146.315 -11.7058 -6.37189 -27.1766 -89.1446 274.686
7400 2 3.72654 -79.7094 -20.199 -73.2041 102.413 -120.824 -25.6711 -55.8052 -21.5238 -81.2873 232.769
2118 2 4.23913 -79.6718 -17.5293 -91.9088 143.026 -124.067 -8.69097 -64.6101 -42.2461 -84.1408 286.16
12002 1 1.44907 -80.1636 -15.5807 148.727 -345.022 433.109 118.168 -21.3968 21.3465 -346.427 713.937
17084 2 2.94165 -79.7438 -15.4446 -61.0909 174.346 -209.568 -20.7155 -41.6241 -37.001 -91.0591 350.75
11934 2 1.25404 -81.7621 -15.5332 -107.172 209.491 -229.579 -65.7384 56.8908 28.8662 -92.7639 423.315
19524 2 1.42517 -78.8958 -20.9643 -112.775 121.8 -150.032 -29.3843 -30.0326 -59.6257 -77.969 284.807
12113 2 5.09323 -78.0945 -15.62 -91.4354 221.526 -186.417 11.8275 -36.967 -2.20643 -84.6113 375.8
9734 1 8.35998 -76.5009 -17.7313 173.126 -351.39 306.853 33.8016 147.497 11.5317 -373.038 657.446
14902 2 7.02649 -76.7824 -16.7523 -75.6325 169.564 -161.472 -6.59327 -63.9293 6.81936 -81.9951 317.912
12196 1 6.18761 -76.9089 -15.4115 169.51 -395.577 323.256 8.0701 63.0395 -31.323 -368.191 667.01
17460 2 9.62608 -77.4265 -17.4152 -74.8166 174.111 -156.641 -26.9263 -41.6051 -20.3461 -80.4449 312.472
17096 2 6.11212 -79.5839 -19.252 -92.389 112.371 -97.0408 -37.1276 -67.3214 4.61693 -82.4158 246.367
22195 2 10.6877 -79.7305 -17.1388 -85.445 133.397 -141.321 13.9597 -38.8453 -15.6466 -82.005 262.846
19306 2 8.70976 -79.8213 -18.8975 -81.8412 126.53 -119.958 -4.99279 -30.1205 -20.8146 -81.9797 238.559
11810 1 7.43041 -80.2809 -19.6809 210.258 -229.862 154.931 34.6462 72.5115 41.8002 -368.679 443.883
21901 1 9.63266 -80.6743 -17.9143 157.413 -236.599 269.949 -25.5574 75.4484 38.6824 -369.482 485.568
26897 2 8.75374 -81.2654 -16.677 -87.1516 129.464 -124.786 15.2182 -45.5004 -37.1621 -82.9204 259.884
11997 2 7.37426 -81.886 -19.43 -118.475 135.051 -113.321 -0.492714 -33.4906 -66.3589 -84.1135 282.085
17013 2 10.2879 -81.8035 -18.8128 -65.0812 103.695 -131.765 6.3885 -55.1185 -20.3389 -82.0026 233.804
21987 1 11.0441 -78.1567 -17.0897 168.499 -292.828 253.68 21.2151 64.9909 31.9195 -372.831 525.788
24493 1 8.58141 -81.9822 -15.2782 152.589 -253.298 274.172 -51.8984 84.8275 60.9365 -369.1 519.31
7596 2 8.00775 -76.493 -19.3125 -111.088 156.136 -114.419 9.74757 -68.6569 6.05276 -79.849 294.697
14501 2 5.36857 -80.6395 -15.2646 -52.9231 187.875 -201.733 -16.9353 -50.246 -67.1623 -85.912 371.386
22355 2 14.1424 -77.0317 -15.3021 -112.125 156.841 -168.761 -3.57883 -31.4885 14.7347 -77.7988 307.323
7427 2 11.6083 -77.3964 -15.7928 -116.367 147.274 -130.634 -16.9486 -19.9931 -10.9036 -80.049 275.48
14882 1 13.7583 -77.8912 -18.7367 189.737 -197.888 204.142 51.3084 114.745 20.5311 -373.068 452.444
17286 2 12.2339 -77.9363 -18.1257 -111.717 125.426 -118.057 -14.0866 -41.0663 -19.387 -81.6138 254.092
17019 1 15.0419 -78.3211 -15.8837 130.563 -259.227 326.427 15.1612 62.007 7.22359 -377.384 528.229
27090 2 14.7159 -78.34 -17.4943 -75.0703 105.829 -99.59 -19.9312 -39.906 -11.7344 -79.4408 210.104
12324 2 13.6819 -78.897 -19.9295 -79.7398 96.759 -124.812 -14.8349 -59.5891 -14.6048 -82.5001 230.415
27349 1 13.0278 -79.9746 -20.9147 150.49 -199.343 241.29 -17.9399 68.6665 43.5018 -370.481 427.995
19387 2 14.2553 -79.5693 -15.3276 -87.3428 137.317 -149.494 -26.1372 -46.543 -19.874 -80.7612 279.34
17039 2 12.4177 -81.1594 -19.998 -88.419 113.69 -113.6 8.35152 -40.0863 -30.5488 -81.4527 233.241
14896 1 16.6137 -81.7898 -17.599 226.702 -249.556 247.572 -30.6154 74.6784 114.772 -367.603 544.295
24606 2 13.4523 -81.9494 -15.536 -73.6006 127.882 -128.066 -40.023 -46.9405 -22.408 -81.1421 259.726
24764 2 16.9173 -78.9242 -20.8789 -77.0374 101.375 -176.165 35.0544 -39.301 -41.6662 -83.6431 269.947
19403 2 15.0465 -81.888 -17.4681 -87.5386 104.431 -137.448 -33.3671 -24.8944 -41.6474 -82.8014 243.571
22182 2 16.4869 -77.946 -15.3603 -75.5481 125.329 -180.712 13.3465 -27.3511 6.53787 -76.671 274.669
29847 1 12.6689 -76.7234 -14.752 256.353 -346.639 278.465 2.2867 78.444 -17.371 -378.498 629.923
12223 2 16.9547 -80.6775 -18.7276 -116.712 107.364 -92.8649 10.6672 -44.4344 -76.766 -82.3408 263.398
7115 2 17.3542 -81.4904 -16.1696 -105.998 124.482 -166.602 31.6837 -15.7496 -20.5432 -83.2881 275.289
22075 2 21.3761 -77.6519 -18.7032 -101.685 127.147 -154.072 53.7647 -31.5364 -33.3043 -78.453 286.495
175 2 22.7638 -76.826 -20.7256 -89.4742 122.946 -137.726 40.187 -16.0716 3.94538 -80.3972 251.728
27097 1 20.2766 -78.7815 -18.256 188.857 -253.148 242.539 -87.4936 52.4099 110.781 -376.278 538.518
24501 2 19.8052 -78.5595 -16.7028 -104.922 107.394 -116.079 31.0671 -34.5131 -35.9902 -77.7911 240.679
19761 2 18.9237 -78.9374 -19.1102 -91.4177 123.607 -111.302 56.0058 -7.17411 -53.9305 -80.6398 263.052
15064 1 17.8106 -79.8195 -19.8233 188.128 -225.648 245.47 -72.6372 38.0636 126.629 -369.735 516.241
19500 2 21.0149 -80.212 -18.3662 -64.7102 109.725 -146.334 16.5223 -28.2561 -38.7354 -80.5439 242.989
16817 2 18.609 -80.8608 -20.7786 -92.1 123.709 -140.234 21.9505 -33.5408 -49.4442 -82.1549 267.27
19588 1 22.1319 -81.3422 -18.4269 82.4479 -123.411 279.293 -49.1971 117.818 45.9176 -371.121 420.568
29601 2 22.8364 -81.5173 -19.949 -11.3637 27.2675 -131.828 41.1391 -51.5461 -35.5286 -83.1084 193.63
19532 2 23.287 -81.1525 -17.3831 -57.7204 42.5144 -120.577 28.2176 -73.2565 -7.82945 -80.9958 197.41
2530 2 28.3764 -76.8787 -18.8905 -59.2564 116.584 -143.836 0.29136 12.3968 18.8756 -77.5797 233.401
27175 2 27.5968 -76.9221 -16.315 -74.5406 92.055 -104.177 1.24196 -39.7656 54.879 -73.8711 217.608
24710 1 28.095 -77.7424 -20.2258 103.403 -307.337 331.03 -73.715 -48.8329 -9.5885 -373.425 581.162
29865 2 26.6193 -78.3691 -20.3851 -60.2209 178.407 -178.121 26.3916 0.68271 -4.11284 -80.9499 317.993
22267 2 24.2062 -78.9571 -20.6817 -55.8697 158.274 -154.72 -22.2118 -19.0186 -45.3307 -80.9356 292.45
29667 1 25.5575 -79.5973 -20.237 109.631 -304.606 323.586 -11.1749 44.1001 54.979 -367.557 566.811
24972 2 25.8219 -80.1602 -18.7102 -61.7269 102.201 -159.54 47.3924 -40.1345 -3.87919 -82.7371 253.159
24611 2 27.9532 -80.6844 -17.1389 -77.0552 75.0804 -88.2672 97.6155 17.1416 10.722 -78.4893 234.071
20152 1 26.4545 -81.1175 -17.5539 135.305 -103.869 186.411 -115.51 69.82 -33.1343 -372.129 360.535
27079 2 25.5494 -81.1065 -16.2547 -46.4853 55.3933 -99.1433 49.3591 -50.697 21.4921 -76.2422 186.875
5162 1 28.7317 -81.2449 -15.8513 138.611 -125.581 185.384 -181.538 -96.7787 17.7564 -383.6 460.711
29761 1 24.0376 -81.3917 -15.9336 155.029 -148.403 211.067 -94.5747 137.719 4.55073 -381.031 442.73
2236 1 28.8595 -77.0795 -17.2946 83.6252 -140.137 249.02 -35.0785 29.91 -109.161 -382.92 395.673
9669 2 28.9787 -78.9495 -19.7749 -40.0869 117.904 -163.468 78.8387 17.6445 35.9561 -83.269 288.333
14598 2 26.4257 -82.5257 -18.3852 -94.8746 -7.73087 -118.381 31.3776 -48.4397 -58.471 -86.2714 174.483
366 2 34.9943 -78.8556 -15.6011 -67.7946 113.004 -156.568 3.59024 -9.22025 48.8156 -78.4586 253.103
2290 2 33.2203 -76.8906 -19.9008 -39.7424 55.7478 -122.601 47.7604 30.6129 35.3354 -81.9173 193.123
4978 2 32.4225 -77.0948 -17.3474 -52.0729 45.978 -144.491 61.3971 34.805 54.2979 -83.1749 225.842
2020 1 32.885 -77.9126 -18.6699 69.4637 -115.3 284.617 -94.3537 -72.3949 -99.2221 -369.387 438.346
24768 2 29.5541 -78.5631 -17.3846 -39.4474 75.4238 -147.712 72.0056 13.8679 31.5038 -78.172 237.617
22471 2 31.4968 -78.6843 -19.0638 -27.7139 64.0587 -154.091 59.9137 35.7775 49.8783 -82.3906 240.965
29852 2 33.8023 -79.0778 -17.9827 -42.9694 80.6824 -153.751 22.917 10.4021 42.7142 -80.6516 220.532
22276 1 30.11 -79.3586 -18.684 41.8613 -160.844 292.701 -175.492 -48.7797 -78.0637 -372.228 522.178
2044 1 34.0368 -79.7633 -16.5301 104.678 -207.996 320.027 -31.2603 52.5908 -51.9626 -377.856 480.42
29769 2 32.6237 -80.0443 -15.6829 -63.7119 75.5524 -144.786 75.2582 -25.9175 -13.2243 -78.0035 238.306
1781 2 30.3763 -80.9352 -18.8456 8.20699 20.3367 -122.491 92.2591 16.2026 23.2786 -80.3241 216.248
128 2 30.362 -81.2645 -15.8918 -34.8981 36.2516 -111.858 96.0978 16.1869 -29.9662 -75.8415 218.278
27012 2 34.5182 -81.3396 -16.6967 -29.4868 30.6446 -168.334 -20.6889 -49.3159 6.53805 -75.0756 199.88
9724 1 31.1291 -81.6923 -20.0897 -80.3631 -28.3562 305.957 -109.703 -5.15048 -106.908 -371.941 449.809
4823 2 32.6643 -82.1267 -19.7009 50.0032 -30.5298 -140.916 9.78739 25.1733 53.2042 -76.9661 195.553
4921 1 31.6835 -81.0618 -14.9314 84.0504 -119.373 339.756 -141.779 79.1961 28.8037 -381.376 490.298
29750 1 -23.4662 -75.8932 -18.9074 28.4944 -162.131 270.565 20.0946 41.0843 -113.977 -370.884 431.658
2100 2 -23.2855 -75.1735 -20.3448 -39.2352 80.9437 -100.915 -6.44995 -19.5405 20.2757 -80.7769 167.82
14962 2 -22.5875 -75.0196 -17.8554 8.27034 81.2272 -159.333 3.40002 -2.29771 78.2555 -82.9657 253.108
2586 2 -20.4865 -74.2676 -16.6555 73.2529 72.0392 -192.206 -28.1896 49.6261 71.5404 -85.6602 308.665
2025 2 -23.0967 -74.0982 -15.5242 10.1511 61.1981 -180.939 48.8654 1.34289 34.3501 -85.2959 244.099
2522 1 -22.0582 -73.9823 -16.7398 -78.5955 -144.983 382.768 -18.1353 -26.0623 -120.065 -365.66 542.369
27827 2 -19.4202 -73.2794 -18.7664 -44.294 105.019 -83.873 -31.9626 81.0499 13.5495 -84.0021 230.42
5216 2 -22.2205 -72.4247 -17.3059 -16.5824 117.028 -168.963 -15.8767 18.737 5.30212 -84.5081 251.645
10270 2 -20.402 -71.5396 -20.6795 -105.698 124.356 -103.94 -45.3736 61.2289 36.2106 -81.2692 271.809
4862 1 -22.4185 -70.7558 -16.9997 35.383 -238.572 349.449 31.0065 -51.1395 60.014 -365.108 530.343
4932 2 -22.5663 -70.4093 -15.3947 -52.854 122.39 -171.978 -7.68632 32.5666 -11.247 -83.518 263.658
4803 1 -24.6115 -74.5203 -15.2462 105.442 -170.494 303.563 -127.737 17.7147 -34.1854 -362.697 472.714
9699 1 -19.0673 -72.3852 -20.0907 130.006 -199.667 159.415 60.3688 -178.471 -56.1128 -371.833 484.953
4971 1 -19.1065 -74.061 -17.3989 -13.3266 -210.33 295.981 90.7959 -187.446 -93.0975 -358.157 592.923
12497 2 35.2051 -75.4873 -18.4067 -33.2717 71.8757 -136.907 25.1193 -1.3453 50.2741 -83.4846 205.363
2314 2 -13.975 -76.2286 -19.0667 -146.962 152.238 -104.565 -0.729442 -6.16902 49.0894 -86.42 293.22
7185 2 -14.7642 -76.2774 -15.1756 -104.05 157.029 -215.409 -49.1979 50.4771 50.7983 -98.6682 363.707
12403 2 -18.2759 -75.3193 -17.8664 -49.4261 147.391 -132.838 -29.8417 107.54 76.6404 -89.3562 342.197
12494 1 -14.8609 -74.7664 -15.5312 154.279 -289.681 429.213 41.8943 -40.7427 -92.0775 -332.078 656.071
7383 1 -13.9721 -74.7254 -18.5577 219.868 -218.359 192.193 -53.2412 26.8054 -49.8663 -357.248 445.87
4997 2 -14.6938 -74.6179 -17.0741 -95.2452 116.779 -139.49 0.281806 -11.6849 35.1999 -96.8179 245.805
9874 2 -14.7969 -73.7955 -19.645 -121.743 98.7582 -70.6993 -0.37689 4.83453 -2.84122 -84.6607 200.164
7580 2 -18.119 -73.3395 -16.3929 -26.8496 91.3528 -163.4 -50.9772 75.5352 22.7846 -94.7016 274.278
7481 2 -16.1038 -71.7384 -15.8397 -112.746 195.64 -190.86 -3.86231 31.5346 13.2705 -95.9793 358.956
27334 2 -15.3306 -71.45 -20.322 -117.219 142.002 -109.473 -13.5745 -8.70922 -29.4474 -78.2446 261.972
2698 2 -17.7849 -71.5153 -19.7128 -81.2066 105.092 -111.055 -20.8339 73.1848 -4.59539 -81.8094 242.058
5079 1 -16.4256 -70.6302 -19.5121 225.926 -295.242 219.224 6.16601 -43.5577 70.3931 -372.437 537.438
10319 2 -15.9705 -70.4081 -17.9621 -127.505 171.663 -141.73 -3.22446 32.5122 -40.2843 -85.7456 319.421
5245 1 -14.6074 -72.7711 -20.8276 202.101 -190.286 168.11 5.09135 43.1911 17.4812 -378.432 385.196
2497 1 -17.1103 -72.775 -15.2908 162.636 -274.93 389.399 61.433 -31.1376 -66.4748 -336.879 607.944
14963 2 -16.3333 -74.2553 -14.7963 -105.006 124.81 -219.496 -47.9965 3.2268 55.555 -102.983 329.296
20075 2 -8.68389 -75.7012 -16.4401 -48.1296 162.257 -196.313 -68.2742 21.1818 14.6811 -78.3731 336.71
12397 1 -8.5341 -75.3334 -18.0712 108.957 -315.966 379.927 108.773 8.84221 27.3133 -384.843 638.038
10294 2 -9.76057 -74.4963 -18.6379 -40.0823 99.4978 -162.322 -21.5356 -9.45996 -26.6977 -76.8528 235.128
10085 2 -12.4961 -74.0734 -18.491 -44.1965 54.628 -125.605 64.7445 -14.5413 8.36006 -84.642 194.572
5032 1 -11.0488 -73.5162 -18.3827 60.4823 -116.737 274.354 -90.742 33.661 25.5898 -371.738 380.941
12246 2 -10.8046 -73.1236 -16.8181 -19.5928 71.5564 -162.286 29.8101 0.917532 -3.51453 -84.7181 210.669
7619 2 -10.7777 -72.1497 -19.1251 -75.4405 58.987 -112.312 57.962 -34.3601 -12.9839 -79.541 196.248
7189 1 -10.5407 -72.2055 -15.554 27.1877 -221.631 356.396 -61.1261 -58.0914 -9.03694 -365.058 523.24
27617 2 -8.4118 -71.601 -19.9535 -90.4997 48.8741 -95.5483 14.9182 -28.253 -19.7695 -77.2212 156.17
4886 1 -9.78745 -70.889 -19.5526 245.281 -182.348 136.718 -59.9762 69.928 41.9515 -379.046 423.047
5093 2 -10.2581 -70.6833 -16.0594 -45.0422 120.109 -171.983 37.4625 12.7008 7.54069 -82.4474 263.093
2666 1 -7.49795 -72.317 34.7538 89.9711 -70.1962 204.276 39.6224 21.8297 67.6267 -382.393 277.284
12512 2 -7.16604 -74.3482 -18.2755 -48.4035 123.82 -164.121 -26.7782 -10.1204 -35.3217 -74.0848 263.024
17081 2 -3.77364 -76.1474 -20.4007 -115.376 142.322 -132.973 3.65046 38.9612 -82.5094 -71.9641 310.274
19687 2 -2.5951 -75.6133 -16.7283 -66.1339 204.601 -183.81 -4.41171 63.2699 -29.6173 -78.3268 365.654
12400 1 -1.30227 -74.874 -16.174 152.593 -424.43 376.796 -14.5336 -49.131 70.3859 -370.248 731.662
22480 1 -3.56782 -74.5504 -20.4115 160.249 -200.255 237.66 -1.48038 -38.0742 149.534 -388.712 485.077
14819 2 -4.53336 -74.107 -19.1935 -87.7425 104.161 -128.244 -18.6512 15.148 -35.553 -72.7965 227.516
17386 2 -2.16165 -73.7481 -20.3278 -61.0266 42.0437 -114.262 -4.77534 29.4933 -32.8818 -74.2845 157.69
7406 1 -5.89488 -73.3837 -18.7929 133.481 -172.7 252.347 38.4518 -20.8228 41.8353 -387.965 394.027
12617 2 -1.49376 -73.322 -16.0453 -45.3348 183.045 -178.56 -46.7978 4.81962 -24.334 -80.9709 329.77
14878 2 -6.29888 -72.8874 -20.2357 -69.1973 50.3631 -105.447 -31.5676 -5.88342 -45.2541 -74.5664 170.822
5167 2 -5.47229 -72.1179 -17.7877 -63.2309 96.1976 -102.167 5.05475 40.7794 20.057 -74.3185 198.528
7488 2 -4.81875 -72.1397 -15.4132 -63.7648 120.103 -150.858 2.50414 6.7848 14.4433 -79.194 241.224
17391 1 -1.39387 -71.8363 -16.7949 78.6573 -228.002 330.366 125.519 -7.11246 3.74316 -373.493 531.08
7604 2 -2.93051 -71.311 -17.0459 -48.3171 84.8582 -149.71 -63.6356 24.1192 19.0147 -77.9399 237.692
7671 1 -4.54915 -71.2645 -16.7586 142.936 -211.775 252.809 30.512 -54.9758 -26.1518 -379.467 436.78
2334 2 -0.908071 -75.5906 -14.8155 -108.851 216.931 -204.017 22.8998 10.3573 7.84899 -88.0176 385.064
2142 2 0.977846 -76.2282 -20.2601 -163.149 131.021 -97.3686 -29.1091 30.002 -45.8775 -78.3242 288.217
14809 1 3.9203 -75.9881 -18.7 192.92 -308.969 265.289 60.6873 27.868 -61.7606 -372.64 564.156
14892 2 2.5256 -75.7982 -17.8227 -122.872 177.342 -128.522 -18.5244 -14.8764 9.86244 -84.4463 306.336
4915 2 1.79589 -75.577 -15.4993 -109.339 216.191 -179.075 33.082 -39.8747 -21.6833 -89.4613 378.15
14985 2 3.38551 -75.3155 -20.0585 -115.559 97.2934 -77.6948 -49.0944 -14.8348 -6.29345 -76.7865 216.079
12419 2 -0.0788547 -75.0912 -17.2602 -115.51 175.589 -134.541 37.132 -8.70676 -30.4675 -82.9479 312.713
9685 1 1.50318 -74.9491 -16.9348 233.901 -348.025 261.508 -8.84054 50.6328 29.1585 -360.767 604.931
12169 1 1.84906 -74.8586 -20.4187 322.874 -174.661 116.519 109.844 -88.5377 54.9834 -379.25 506.199
15164 2 1.38746 -73.5737 -19.4609 -190.687 91.9573 -52.2428 -38.1155 61.386 -3.73803 -79.7324 275.007
19674 2 1.70703 -73.3451 -16.5951 -125.693 144.019 -161.878 -18.3023 3.75103 -19.5302 -89.0378 293.266
19697 2 4.06865 -72.9914 -16.3237 -52.9561 115.37 -214.391 -0.915839 -13.0978 4.11515 -87.9827 286.595
17273 2 -0.243254 -72.2341 -20.7379 -163.049 82.3138 -41.313 -37.8789 67.0195 -50.4697 -75.4682 265.657
7408 1 0.581497 -72.1961 -19.3221 339.231 -188.344 83.2568 60.2207 -140.645 28.9171 -378.436 530.607
4819 2 -0.550606 -72.008 -18.1561 -102.376 85.397 -94.7736 -46.8689 36.4812 -4.83804 -79.7277 211.05
12195 1 2.64671 -72.1565 -16.0346 192.013 -283.835 315.627 35.3791 -9.39214 17.4259 -358.308 552.688
19978 2 1.47024 -70.9091 -19.1245 -155.411 117.782 -73.091 10.2117 31.6369 -69.9403 -76.9616 277.331
10090 2 -0.534464 -70.7458 -15.9886 -57.324 111.182 -172.965 -65.1612 -10.1446 9.90161 -83.7233 273.119
14802 2 2.60843 -70.8498 -16.9379 -102.853 140.772 -158.626 -10.712 -1.64312 -35.8307 -84.1315 283.294
11626 2 4.87119 -75.0133 -17.8211 -58.0934 148.974 -175.379 -5.12936 -38.8491 24.5047 -83.1076 295.512
17284 1 8.08021 -75.8112 -20.7331 267.992 -248.793 153.508 -18.6375 48.31 -47.6664 -377.941 485.665
17345 2 8.98603 -75.1223 -17.3475 -91.1461 145.448 -149.801 -28.5174 -64.5735 3.61748 -81.691 297.124
14784 2 8.15682 -74.2175 -20.4916 -168.823 125.853 -110.817 -19.538 -49.831 7.83566 -78.0499 286.155
22489 1 9.87672 -73.8593 -17.3323 155.637 -256.852 303.921 36.3793 45.135 -65.1734 -373.892 525.476
12470 1 5.26627 -73.6081 -17.1651 95.9229 -239.822 371.576 -20.9015 101.846 -1.98326 -364.36 560.088
7517 2 6.62965 -73.4607 -16.3423 -94.1506 114.026 -164.625 -0.642829 -52.4849 1.04053 -85.5842 266.915
17453 2 9.78527 -73.2311 -18.8914 -141.261 128.35 -128.338 -29.3558 -32.3853 2.6842 -79.3119 274.092
4995 1 8.88823 -72.8304 -20.1889 385.186 -319.545 188.084 87.1315 134.212 88.2672 -379.97 704.825
22568 2 9.1544 -72.8538 -16.404 -57.0173 112.712 -149.065 14.463 -27.115 31.2228 -80.5407 242.202
7389 2 5.61396 -72.5629 -18.4158 -71.4011 117.096 -153.873 8.79197 -68.1106 -53.5168 -80.0556 283.937
12700 1 7.68711 -72.2941 -15.9536 170.657 -215.524 257.725 -34.8048 86.099 -35.7429 -369.779 469.092
14946 2 7.79429 -71.7846 -19.6325 -183.857 155.199 -97.0648 -30.0418 -65.2644 -76.1622 -77.771 354.898
14775 1 6.66228 -71.3203 -18.5922 269.958 -265.142 235.335 19.6245 138.196 183.947 -376.558 654.952
17287 2 7.35471 -71.1779 -17.1355 -116.407 144.379 -121.13 25.8733 -52.0031 -26.172 -80.5005 285.376
19704 2 13.8904 -76.318 -19.0022 -86.6392 85.7494 -122.911 -37.2201 -57.6952 20.0476 -78.4283 229.422
10092 2 11.8175 -75.9168 -20.4953 -112.006 103.376 -155.727 -65.6561 -38.4226 -0.802907 -79.7368 274.008
29669 2 16.524 -74.9312 -20.4021 -34.2783 31.9142 -122.03 7.31028 -53.3264 -8.28645 -70.6408 163.67
14773 1 13.0989 -75.1717 -19.8398 207.29 -179.727 279.058 117.523 106.776 -19.2371 -382.269 509.369
4890 2 11.4116 -74.1222 -16.9779 -106.451 141.792 -157.812 -6.42193 7.99494 52.177 -78.8828 292.396
19787 2 12.8314 -73.8587 -19.0063 -166.075 129.354 -110.26 -31.6753 -14.4486 43.8478 -73.2391 288.632
12361 1 12.7281 -73.2816 -17.5314 280.827 -306.39 320.318 5.71349 -45.5377 -145.239 -384.091 662.703
16903 2 14.1442 -73.283 -16.7777 -109.082 153.114 -204.863 -0.0515494 10.4944 74.7688 -74.0567 346.607
19780 1 15.4555 -73.066 -15.8932 140.966 -308.286 496.093 -18.8147 45.6735 -143.602 -389.229 746.102
9488 2 12.0976 -71.8331 -17.2528 -140.487 185.462 -181.087 26.2671 26.7925 34.3692 -75.8639 359.015
15083 2 15.8941 -71.5394 -15.5459 -66.522 135.299 -247.067 43.7325 -9.4467 32.0373 -73.1947 344.748
14966 1 11.6529 -70.6519 -16.2756 245.044 -345.043 347.323 -47.6453 -23.769 9.43725 -377.449 654.057
16809 2 16.7078 -73.741 -16.5167 -58.5436 139.551 -241.133 7.62114 -86.65 97.4984 -69.6798 399.959
22457 2 11.0619 -71.3647 -15.0224 -88.5788 147.21 -169.093 26.9901 -18.2729 19.4964 -78.7675 292.217
26793 2 18.6943 -76.3815 -20.5271 -81.9389 44.0099 -129.387 73.2571 -25.0504 -13.3414 -80.5444 206.414
21889 1 22.249 -76.4129 -19.2547 202.843 -257.049 302.176 -142.725 32.4358 -14.64 -377.833 576.16
19596 2 17.8851 -75.718 -15.4292 -112.278 136.941 -177.511 14.5664 -61.2928 2.38606 -71.351 307.485
24691 2 17.6603 -75.5773 -18.1258 -70.3677 55.0345 -126.017 48.6721 -73.6239 53.0223 -73.5752 240.007
26978 1 17.9555 -75.239 -19.6899 149.274 -34.9196 217.23 -132.206 70.6738 -80.2707 -386.982 371.231
17262 2 21.3074 -75.0636 -18.9185 -113.722 116.737 -173.849 91.8095 -32.8526 41.422 -77.3522 322.886
19671 1 17.9368 -74.8411 -16.7075 167.261 -226.342 386.498 -77.1279 199.3 -112.127 -392.454 681.18
19966 2 19.4519 -74.2497 -17.0382 -92.2438 128.436 -199.65 90.5242 -85.9105 75.8283 -71.0511 384.595
24670 2 18.949 -74.0026 -19.4913 -121.194 92.2151 -113.374 93.8095 -38.9703 52.0423 -69.5052 288.128
2485 1 20.2336 -73.8349 -18.4731 253.214 -274.593 364.354 -225.299 116.288 -155.957 -389.061 784.479
22446 2 20.7845 -72.4092 -18.2736 -167.349 190.701 -164.828 76.6855 -61.7509 47.8223 -72.4947 404.037
29771 2 22.5351 -71.7875 -16.4457 -165.53 107.913 -90.3797 -31.0951 -19.1055 30.9536 -78.001 258.34
22273 1 21.3191 -71.1729 -17.3279 351.137 -303.491 225.35 7.55006 133.48 -38.7209 -382.378 648.179
27380 2 20.198 -70.5117 -16.331 -110.582 106.134 -140.891 -3.19986 -80.7041 20.809 -75.1726 274.448
4815 1 26.4791 -76.0723 -15.4977 212.675 -205.129 228.521 -24.2247 42.9982 -43.3007 -384.484 440.867
27077 2 23.6094 -76.1495 -18.4329 -117.062 147.836 -135.653 58.784 6.42572 14.4112 -76.0975 294.202
22470 2 25.6601 -75.4746 -16.7708 -128.116 109.824 -84.7128 -1.81499 9.56008 12.7153 -75.0897 221.226
22082 1 24.4914 -74.9755 -17.8019 271.303 -237.577 187.231 -62.6324 -26.8883 -23.9025 -382.001 488.77
27000 2 25.1518 -74.1622 -19.0175 -132.878 128.786 -100.367 38.1958 -25.8017 -16.0095 -78.7742 261.076
29892 2 23.704 -73.9292 -16.8709 -183.618 110.887 -88.8808 8.55446 29.0689 35.7717 -77.1044 272.766
22293 2 27.3553 -74.0489 -20.4104 -104.166 158.546 -167.739 -23.7361 6.86789 -5.18822 -80.5753 302.776
14979 1 25.8298 -73.5171 -20.2784 249.108 -266.14 255.724 -43.5911 25.6791 26.0943 -369.924 527.877
19863 1 23.5662 -72.7997 -15.7613 331.419 -179.482 155.753 59.727 -15.4966 -62.1369 -378.581 474.485
22186 2 25.7931 -71.944 -20.0176 -124.088 123.102 -143.564 9.82444 1.90444 -3.07457 -84.3605 258.119
27306 2 28.2976 -71.1052 -16.1678 -82.977 75.4844 -74.8813 21.3226 -21.0406 -16.3686 -76.2012 165.495
22002 2 26.5478 -70.5481 -18.1173 -82.9917 71.8409 -74.8467 31.6592 20.8113 -0.427587 -79.295 164.576
16 1 28.0354 -70.3629 -17.5537 155.804 -151.338 133.501 -47.6448 -42.0792 -5.55554 -378.194 316.541
24602 1 25.7302 -70.4699 -19.4227 163.98 -209.258 189.031 20.1023 -25.9827 30.9304 -368.402 394.198
29599 2 24.9733 -72.2507 -15.2452 -116.684 77.1475 -97.4206 -11.7551 -5.38763 22.4873 -78.8398 190.333
27176 2 30.1199 -76.1194 -16.8646 -1.91031 53.326 -137.355 14.9196 2.7333 58.8977 -76.2056 199.937
2415 1 31.7093 -75.7635 -16.675 41.3062 -126.544 282.523 -67.6387 -41.6609 -76.1409 -375.199 403.945
27357 2 29.2542 -70.7609 -18.6083 -29.9173 73.9107 -120.41 10.9188 43.2203 10.7028 -79.9092 186.2
2418 2 34.7414 -74.0143 -16.5657 -65.7687 110.562 -169.648 32.642 21.4742 6.69545 -85.3831 254.784
27368 2 32.501 -74.6819 -17.6649 -51.5547 134.385 -165.662 17.713 40.3409 15.653 -80.1897 274.535