ITEM: TIMESTEP
1100000
ITEM: NUMBER OF ATOMS
29952
ITEM: BOX BOUNDS pp pp pp
-2.5093087473165852e+01 3.5078381815859899e+01
-9.6097262287553974e+01 1.0608255662955398e+02
-2.0985542515027589e+01 3.4853395661184415e+01
ITEM: ATOMS id type x y z v_StrAtomXX v_StrAtomYY v_StrAtomZZ v_StrAtomXY v_StrAtomXZ v_StrAtomYZ c_PEAtom v_VMS
2196 2 -15.7221 -90.1701 -19.5424 -141.795 160.15 -183.753 -196.526 28.8219 58.7633 -82.0949 484.065
4248 2 -13.7928 -91.5735 -15.8238 -258.704 232.103 -226.812 -104.37 -72.6234 76.7724 -72.3905 540.776
12116 2 -13.4388 -91.2167 -18.2503 -217.546 234.881 -256.809 -145.979 -17.1424 78.83 -86.1402 554.481
4527 1 -13.3716 -92.3502 -17.0391 563.292 -573.085 568.075 205.062 134.521 -96.7331 -383.409 1226.92
4519 2 -13.6536 -93.8835 -17.4973 -336.09 396.858 -368.918 -15.9004 -64.0571 -39.6582 -66.5486 761.668
6926 1 -14.0905 -90.2705 -14.8913 332.046 -272.064 313.404 215.752 89.2668 -193.373 -383.669 793.578
2278 2 -15.6303 -90.0527 -14.7908 -161.882 121.585 -174.792 -138.001 -73.2992 76.9779 -79.0473 418.578
29775 1 -14.9005 -90.2074 -20.9058 341.915 -327.078 314.738 376.305 -164.868 -91.2252 -362.893 980.529
9798 2 -11.1657 -90.6576 -19.2724 -116.427 265.523 -342.219 -29.9444 51.982 66.3317 -86.5893 554.171
9438 2 -8.70034 -91.0618 -16.5238 -116.808 169.348 -251.703 -33.4569 101.844 61.3266 -69.6257 429.465
4899 1 -10.2339 -91.6967 -19.993 90.1406 -430.871 794.23 2.02866 -76.9379 -19.6551 -362.479 1073.76
9517 1 -8.21205 -92.5125 -15.9044 330.997 -376.584 533.065 27.3702 -243.517 -97.7169 -409.19 945.133
17086 2 -9.82034 -92.9917 -19.2182 -76.4032 195.797 -445.417 -20.6803 59.1802 -11.5398 -81.883 568.242
7017 2 -11.8196 -92.8389 -17.2495 -255.171 275.896 -322.322 -69.4127 5.087 24.7239 -75.9749 581.867
9608 2 -8.93189 -93.6618 -16.7858 -161.51 245.819 -332.298 -5.32045 131.376 -10.2088 -61.7404 562.875
14621 2 -12.4528 -93.928 -19.812 -332.528 317.75 -417.491 -14.954 66.5469 -24.2337 -82.2599 707.848
12202 2 -8.82442 -91.0171 -20.4297 19.1344 231.97 -389.854 25.6723 -2.73467 -4.4473 -80.1033 549.251
4816 1 -12.1442 -94.0976 -18.2058 669.249 -709.717 804.019 46.2411 -16.7745 125.458 -385.606 1469.7
7300 1 -9.38596 -94.2411 -18.2156 285.091 -557.247 882.05 55.5183 -171.006 134.488 -399.923 1311.48
12319 2 -8.08491 -94.7543 -19.0168 -84.5466 292.129 -491.692 -40.5351 15.9895 -82.8918 -61.6327 698.085
24571 2 -10.822 -94.9728 -18.1558 -299.337 407.744 -486.69 -18.7693 70.5161 -106.419 -65.0618 847.047
7201 1 -12.6243 -90.0287 -18.9667 295.097 -525.077 523.504 178.51 -77.5719 -165.484 -360.588 1052.61
12367 2 -6.96885 -92.7829 -20.4382 23.7437 172.442 -423.499 -43.2815 -25.7055 -15.04 -77.0503 544.905
19496 2 -6.65865 -92.6365 -16.0827 -165.531 177.912 -298.177 -6.70575 49.1296 42.4343 -62.3922 440.321
14115 1 -6.73839 -94.2964 -19.8073 76.3945 -450.381 885.83 90.8602 41.2561 96.7556 -401.048 1190.39
14684 2 -1.94621 -91.5136 -19.9501 -140.728 223.787 -331.772 109.636 137.715 51.3746 -78.6304 582.994
17135 2 -3.91957 -90.3262 -18.5108 -98.1598 217.526 -282.387 -7.06559 92.2668 80.1438 -72.9967 486.532
17093 2 -1.37695 -91.2225 -17.5915 -80.1602 194.511 -314.309 97.9818 159.754 106.316 -73.4202 577.805
9712 1 -2.74094 -91.3775 -18.4918 196.793 -427.201 616.971 -127.535 -200.729 -185.338 -385.902 1049.2
16881 2 -4.2063 -91.5711 -15.404 -127.52 195.162 -301.027 62.1658 16.2789 77.0511 -60.6043 469.484
9630 2 -3.51768 -92.7276 -18.1679 -158.248 216.795 -326.061 41.6816 52.0438 60.1916 -70.1655 505.927
14307 1 -5.2172 -92.8103 -15.3523 409.78 -428.956 638.418 -17.7317 -6.4659 -65.1405 -420.916 980.469
17074 2 -1.51287 -94.0657 -20.3372 -250.127 329.035 -425.055 25.7109 145.548 26.4887 -68.5375 731.424
16917 2 -4.50915 -94.01 -16.2515 -249.285 285.25 -358.862 -2.96093 6.02587 -15.8085 -53.3297 597.655
14618 1 -4.26073 -94.1507 -17.8488 433.843 -561.544 698.225 -19.4627 -43.1542 22.6338 -412.81 1154.17
9885 2 -5.6685 -94.1564 -18.6009 -120.269 231.865 -362.296 -16.7932 9.35816 -23.8236 -63.7956 520.204
7095 1 -2.94257 -94.8017 -20.4097 624.669 -707.907 868.967 49.9066 -164.954 20.2036 -395.927 1500.44
12177 2 -3.40501 -95.1078 -18.8744 -318.707 368.796 -407.418 -25.5346 59.4579 -55.8864 -59.5475 750.633
12185 2 -4.02569 -93.6871 -20.9022 -200.54 235.042 -417.422 -7.81952 55.5218 7.89778 -80.5278 583.83
11918 1 -0.846062 -92.5937 -20.3608 322.562 -490.335 726.131 -242.042 -297.659 -88.8105 -389.478 1271.59
12212 2 3.49262 -91.142 -15.5672 -252.766 180.063 -293.544 -61.4238 18.7194 2.85152 -93.0832 468.025
12086 1 0.194886 -91.3925 -17.847 200.375 -387.844 596.845 -196.049 -423.705 -120.373 -384.043 1197.39
12198 2 1.08892 -91.8624 -16.528 -134.057 225.152 -332.725 47.0358 195.99 34.7539 -76.0242 604.45
12111 1 2.03303 -91.8357 -15.2297 443.349 -465.353 664.85 1.10924 -180.82 -12.9254 -370.619 1083.82
4424 2 0.246852 -92.3215 -19.1585 -121.216 237.405 -347.503 112.054 191.677 50.5975 -68.8732 645.395
17006 1 4.43803 -92.5858 -15.3577 636.708 -604.486 695.958 133.541 49.2656 -1.89881 -372.538 1295.53
24524 2 2.94895 -93.2411 -15.1612 -321.997 389.025 -397.092 17.0332 44.8229 -7.21722 -70.7611 756.069
19508 2 5.38842 -92.7001 -16.6391 -264.17 299.986 -371.603 -70.1597 -108.146 -1.35265 -77.3235 663.538
19784 2 9.82817 -90.1691 -15.9149 -105.844 182.009 -202.439 -5.80904 13.3389 11.8342 -68.9919 347.923
19227 1 8.90165 -90.4275 -17.241 314.89 -431.818 471.115 9.18247 126.802 4.90606 -386.828 864.405
14443 2 5.91025 -91.1837 -18.5101 -184.938 178.991 -254.054 -51.6071 -119.836 -98.4316 -79.5295 492.456
22211 2 9.51636 -91.4284 -18.3604 -180.293 229.927 -280.94 -76.1472 -130.571 -26.8001 -69.1199 538.882
12321 2 7.59548 -91.183 -16.6989 -165.9 198.258 -260.899 -24.4701 -104.716 -10.0124 -78.2099 459.591
16815 1 6.65052 -92.2985 -17.5804 435.576 -514.382 703.372 136.129 315.29 78.0025 -383.472 1265.15
17104 1 9.14464 -92.7857 -19.2417 453.351 -510.406 684.322 212.749 355.548 109.549 -405.73 1325.07
19786 2 7.67868 -93.0789 -18.5179 -249.739 308.295 -401.452 -79.4912 -168.458 -26.2015 -65.757 724.728
9800 2 10.3255 -93.8839 -18.9083 -220.832 282.92 -407.466 -80.8293 -114.925 -56.6264 -58.3106 671.906
19292 2 9.39822 -92.4831 -20.794 -281.638 240.543 -286.343 -84.1257 -201.165 -101.68 -62.6306 669.927
14741 2 15.8968 -91.0943 -20.2453 -231.253 212.179 -177.249 27.779 -1.09177 -11.242 -72.0052 422.255
19505 2 15.3221 -91.6066 -15.1288 -261.183 220.513 -220.29 -0.984155 -37.0079 2.89078 -71.522 467.057
19580 2 12.6435 -92.7649 -18.1495 -173.516 198.86 -261.34 -39.761 -24.0268 -20.7569 -61.4351 432.259
24569 2 14.7171 -93.8593 -18.9241 -319.539 218.526 -278.213 36.0368 -36.2794 -33.8881 -63.9939 529.41
17050 2 14.3442 -93.6256 -16.087 -315.952 205.173 -218.987 39.843 26.8633 27.936 -60.8848 489.603
19683 1 14.282 -93.8316 -20.5429 577.588 -501.434 587.57 -6.05813 208.279 194.417 -403.951 1191.14
12302 1 13.8399 -93.7693 -17.5614 593.439 -414.586 460.16 -65.8541 -21.2102 2.58224 -413.001 955.986
12364 1 11.91 -94.0793 -18.8841 444.276 -485.131 763.255 77.1083 131.416 135.059 -417.091 1177.45
17205 2 12.7003 -94.1785 -20.3122 -267.758 277.422 -351.983 -13.9021 -75.9471 -97.9387 -59.5753 629.994
22085 2 12.7436 -94.9394 -17.8265 -316.028 311.235 -364.199 19.2247 -28.5173 -46.2512 -53.904 660.274
14294 1 15.1636 -93.1796 -14.7199 612.219 -479.862 501.782 -15.3243 26.0916 -41.2458 -403.879 1045.03
19405 1 15.2031 -90.0101 -15.1735 406.211 -441.348 437.441 45.0405 112.97 110.826 -386.948 909.407
16637 2 17.1853 -90.4577 -18.0052 -256.791 211.719 -105.367 39.0528 -30.826 10.2095 -70.963 423.351
17077 1 17.2762 -91.2865 -19.4281 524.745 -405.021 246.831 -146.231 -3.77297 -9.51092 -391.829 864.737
29298 2 21.4709 -90.2793 -18.2705 -147.049 148.819 -174.797 127.582 52.186 -87.6635 -67.9639 420.207
27070 2 18.3523 -90.615 -20.4249 -239.438 201.156 -152.745 97.6632 1.07256 -3.57868 -73.4298 438.291
24409 1 21.7235 -91.8311 -18.0123 358.83 -307.568 418.492 -223.439 -179.266 167.067 -413.737 904.059
24657 2 20.2325 -92.3402 -17.5448 -238.813 162.731 -179.109 91.0819 54.6323 -68.6584 -62.6297 434.525
29301 2 17.9174 -92.6851 -18.885 -297.26 200.339 -129.629 74.139 18.8054 -23.3821 -66.8737 459.873
17190 2 21.8496 -92.794 -19.3268 -242.401 176.988 -214.236 98.0319 80.377 -40.8361 -50.5779 466.994
12110 1 19.0417 -93.4363 -17.977 662.27 -441.869 343.781 -142.265 -75.7078 102.349 -416.081 1038.38
22104 2 18.4324 -93.9057 -16.55 -329.374 243.287 -224.736 35.6809 37.9466 -31.7142 -58.816 538.632
22071 1 21.2465 -94.2756 -19.7936 676.706 -615.141 538.023 -48.0617 -110.663 18.6281 -453.988 1246.46
19859 2 19.8857 -94.4465 -18.8478 -404.074 318.423 -255.753 46.415 69.3016 -25.375 -47.93 677.97
26904 2 22.2694 -95.3873 -19.6178 -329.563 448.376 -339.938 -49.1783 41.6692 8.61614 -23.6218 791.236
27157 1 18.1093 -93.7198 -14.9837 551.47 -506.652 576.543 -23.9508 -84.4946 66.5137 -408.8 1087.75
1928 2 23.0279 -91.8979 -17.0646 -135.901 157.089 -246.286 69.3455 74.225 -121.252 -61.7989 453.245
24504 2 23.7289 -90.2301 -15.2669 -141.102 189.329 -202.35 19.9406 -25.3029 -125.723 -74.4555 428.609
4599 1 27.6396 -90.2919 -17.7537 618.352 -421.54 283.228 -151.355 151.051 412.872 -386.556 1222.19
21898 2 25.8362 -91.5665 -16.4499 -268.243 209.855 -259.069 60.5709 -60.9573 -173.626 -72.0557 580.404
29569 1 24.268 -91.6305 -15.98 335.896 -369.799 520.43 -68.2087 23.5841 291.564 -393.98 965.887
19688 2 27.8581 -91.8603 -17.5951 -368.868 294.304 -242.969 32.0794 -111.603 -154.93 -62.058 696.145
27246 2 28.1361 -92.2461 -15.0026 -297.86 268.326 -341.062 54.1436 -56.3047 -72.7282 -67.594 617.306
29389 1 27.224 -92.5373 -16.3223 731.067 -604.985 648.398 -47.0238 204.783 206.266 -403.207 1393.38
27095 2 26.5296 -93.9742 -15.9081 -403.451 385.163 -428.765 -13.0089 -100.04 -42.6866 -57.6088 823.72
29 2 24.4276 -92.9242 -15.0577 -234.238 232.762 -347.65 46.3534 -47.6217 -109.067 -68.7608 576.932
2327 2 -20.9459 -89.3773 -20.7053 -107.12 85.3941 -246.094 -83.0172 20.5205 40.9972 -69.3713 331.83
9799 2 -21.4303 -88.721 -18.0078 -76.9817 52.6955 -206.103 -77.7415 -0.42924 4.83309 -69.7244 261.6
4993 1 -21.32 -88.3019 -19.6054 85.3861 -62.0382 396.703 170.12 -15.3445 -99.4842 -386.815 530.818
7205 2 -21.733 -88.2733 -15.0661 12.4131 -8.99625 -193.625 -55.6044 32.2688 -39.2332 -72.0976 235.619
29762 1 -21.8863 -87.9845 -16.6652 3.31057 -19.0321 350.372 117.705 -65.9718 58.1084 -390.333 439.835
7113 2 -23.4542 -87.8461 -16.7552 32.0824 -23.9756 -225.788 -54.2065 6.41982 -19.7852 -69.8352 255.533
9473 2 -20.0127 -87.3522 -19.7078 -89.2089 65.3108 -180.453 -101.287 21.4157 67.3813 -80.7011 303.438
27633 2 -22.5175 -87.3054 -19.9831 9.01207 -10.6302 -189.568 -75.8892 26.3647 32.9744 -75.5818 241.959
9894 2 -21.1152 -86.5558 -16.7587 -17.6055 52.2191 -182.666 -43.3262 42.6643 -27.4058 -78.9831 238.728
4983 1 -23.3785 -85.9714 -20.1199 -17.8016 -38.8827 321.327 59.0088 -64.07 -55.2436 -381.035 393.088
26871 1 -20.2587 -85.1771 -16.6329 135.612 -266.229 367.34 41.6674 -117.265 41.4669 -371.967 599.927
7685 2 -20.1087 -84.9731 -14.9771 -83.3525 151.4 -175.403 -23.7412 27.6994 -36.0881 -79.6532 305.108
29648 2 -22.8694 -84.7845 -19.1275 8.72485 85.667 -212.246 -18.6496 20.0811 40.4344 -77.3621 280.906
1640 2 -21.0474 -83.9925 -17.3866 -11.8488 150.575 -248.138 -30.0504 44.7282 4.4761 -79.3002 359.672
27177 2 -24.9188 -86.4922 -19.931 33.427 -22.8759 -155.004 -4.43739 7.44453 36.5227 -76.09 179.706
2035 2 -18.8748 -85.3751 -17.5402 -126.377 188.546 -178.863 -37.8657 48.5024 18.0411 -84.478 361.657
4495 2 -13.4122 -89.836 -20.3484 -158.311 233.423 -196.926 -119.176 82.5499 43.7523 -86.8643 488.742
7411 2 -17.0202 -89.7913 -17.0575 -166.24 132.606 -147.216 -149.513 -35.5984 37.6957 -78.2786 398.889
9700 1 -17.0625 -89.5089 -15.4539 366.302 -223.776 305.14 276.906 134.277 -99.8175 -371.001 793.634
27087 1 -16.552 -89.2457 -18.536 253.948 -259.319 325.619 366.545 -29.9607 -94.5743 -371.236 859.044
7410 2 -13.3601 -88.9441 -15.4451 -123.672 126.659 -151.391 -51.594 -19.9552 88.9221 -78.0283 321.364
29673 2 -17.8178 -88.7741 -19.351 -112.49 93.8331 -165.634 -161.579 53.256 56.9599 -80.7734 391.055
1944 2 -15.6294 -87.9468 -18.1316 -111.883 193.292 -217.273 -131.435 -2.45071 44.3841 -83.4868 440.63
29654 1 -18.5843 -87.732 -20.3137 237.259 -202.951 296.114 256.856 -111.124 -137.825 -371.459 717.715
14780 2 -13.764 -86.5354 -19.3987 -103.141 260.947 -262.431 -48.9605 2.19035 25.312 -77.915 474.401
4732 1 -14.9698 -86.4795 -18.2974 175.799 -527.751 518.596 143.284 -13.1123 -102.594 -374.535 973.32
2132 2 -17.7663 -86.4269 -19.9086 -136.001 190.847 -185.963 -94.9715 54.9626 49.2783 -81.142 411.171
9869 2 -16.3025 -85.5646 -18.2616 -101.779 260.987 -232.931 -59.2273 17.8775 54.2063 -81.2645 465.484
12271 2 -14.0863 -85.764 -17.0789 -118.864 272.231 -234.572 -73.3011 -4.29114 65.4073 -77.7022 490.515
2524 1 -17.7981 -85.3468 -18.7471 252.768 -467.563 387.777 119.634 -80.4909 -106.38 -369.829 854.798
4900 1 -13.393 -84.3325 -16.9938 226.51 -477.691 435.8 196.479 -29.7954 -177.317 -383.297 948.621
9899 2 -16.9591 -87.9541 -14.9171 -168.426 97.1178 -143.588 -119.916 -34.9272 3.41898 -87.3259 333.72
27167 2 -18.1362 -83.9978 -19.5399 -146.053 207.192 -148.312 -12.6462 50.0655 31.4966 -80.8748 369.541
9506 1 -9.32141 -89.59 -16.5149 109.186 -321.623 467.341 40.5932 -167.52 -140.455 -392.193 785.164
27068 2 -12.5759 -88.7666 -17.9381 -121.368 246.71 -274.673 -55.8957 11.6087 67.3721 -82.7289 488.678
29566 2 -10.9364 -89.5878 -16.3773 -79.8222 159.033 -233.163 -35.6856 61.2515 103.354 -75.1013 405.355
5069 2 -8.73809 -89.0047 -15.1435 -72.3233 145.3 -200.347 -21.5303 81.9279 66.7114 -67.5036 355.653
16822 2 -8.89999 -88.7047 -17.7392 -34.9085 180.537 -276.331 5.35707 35.0558 46.0145 -72.8547 408.46
7117 1 -12.1043 -88.5095 -16.3876 199.237 -369.292 432.873 59.483 -40.2186 -164.347 -380.256 779.19
19117 1 -8.01634 -88.496 -19.0927 30.8238 -377.274 633.583 -45.2649 -52.7483 -33.9227 -386.783 890.951
19703 2 -8.91063 -88.2576 -20.4521 -22.9055 214.656 -315.496 6.59355 23.0874 -28.4975 -75.0421 464.456
179 2 -11.4339 -87.067 -16.1793 -91.1321 194.997 -209.484 -20.088 44.3174 78.4005 -72.8178 394.061
29407 2 -11.2084 -86.357 -18.641 -82.3233 196.736 -270.377 -28.7037 10.3326 14.7046 -74.6292 411.287
9795 1 -12.2324 -86.3373 -19.8843 230.186 -454.4 482.689 75.9747 17.4328 32.4577 -383.603 852.447
12099 1 -10.7219 -85.9011 -17.175 102.827 -358.518 479.361 10.7207 -89.5772 -139.078 -393.606 781.52
4281 2 -9.16982 -85.7199 -16.9499 -22.844 168.103 -256.623 37.0617 62.2296 79.8445 -67.6977 413.058
4622 1 -7.72017 -85.1543 -16.4409 25.7407 -314.236 493.089 -59.8021 -127.392 -130.261 -398.766 776.663
11913 2 -8.25438 -84.6537 -15.0128 2.49735 140.552 -295.822 19.6971 37.4143 29.1978 -69.8583 396.433
2300 2 -11.7037 -84.5977 -17.1081 -52.3787 180.425 -238.268 -46.7541 46.6497 73.9525 -70.3463 401.897
14405 2 -7.24715 -87.0007 -19.0511 -39.7522 191.171 -290.94 23.4994 44.5356 31.312 -70.8836 430.087
7379 2 -12.2121 -84.8415 -20.46 -129.8 181.801 -208.853 -70.4059 -14.0803 -45.9582 -73.0158 387.014
2016 2 -7.21111 -83.9971 -17.4414 -47.6993 137.819 -224.497 10.1941 63.54 48.4714 -68.6306 343.433
12006 2 -11.4315 -87.3485 -20.8922 -104.516 248.555 -226.882 -0.0856876 20.1388 -26.1133 -75.2926 431.391
17008 1 -3.84826 -90.0412 -15.1946 108.489 -355.761 566.32 -193.816 -81.8461 -210.807 -402.795 950.681
7053 2 -6.66806 -89.3687 -18.6791 -34.4169 185.214 -294.371 25.1238 53.3979 27.2841 -73.1822 430.8
16617 2 -4.95612 -89.3832 -16.424 -57.8744 184.565 -252.17 60.2431 74.1547 86.7796 -68.6054 440.01
19501 1 -5.11771 -89.2741 -17.9876 110.066 -380.634 506.922 -32.7622 -183.61 -106.928 -393.225 855.381
14431 2 -2.46791 -89.3841 -15.7876 -18.2201 176.7 -303.098 56.8965 74.9084 121.929 -72.7628 495.806
7024 1 -1.28212 -88.4195 -15.3786 71.2072 -423.302 612.262 20.1298 -118.817 -164.219 -371.211 964.006
12309 2 -4.83432 -87.8524 -18.6648 -67.191 200.902 -242.046 35.7496 104.022 46.793 -71.14 438.395
11852 2 -1.51084 -87.0639 -16.25 -61.4065 234.619 -275.559 -9.12362 70.1239 67.3861 -83.9109 474.88
6915 1 -5.74954 -87.0274 -19.667 152.499 -401.669 554.29 -89.5963 -129.596 -29.9586 -391.093 876.561
20025 2 -6.5226 -86.191 -16.2822 -13.3714 178.416 -246.139 30.7936 84.805 69.3039 -68.7824 417.653
17276 2 -3.76985 -86.003 -16.2951 -14.4782 182.024 -272.466 22.1514 91.8921 41.1359 -77.3221 433.297
12316 1 -5.17834 -85.9115 -15.4582 6.73553 -347.248 579.206 -29.5982 -140.623 -68.0641 -386.462 855.291
1833 2 -4.91302 -85.7377 -19.862 -88.8133 193.233 -234.392 49.7717 69.5675 9.17069 -70.5089 404.977
9616 1 -2.21851 -85.661 -16.2617 80.6833 -373.315 538.981 15.682 -153.802 -34.5697 -365.041 836.365
12216 2 -2.37434 -86.2674 -20.4867 -43.7839 195.923 -249.192 25.5497 81.7488 -14.0661 -71.048 414.114
17202 2 -1.59874 -84.6681 -17.3792 -113.297 143.308 -160.417 -0.48132 60.3178 -7.52499 -83.4781 302.064
12363 1 -1.39315 -87.4967 -20.8027 77.7848 -444.817 566.685 -77.6034 -132.63 71.1527 -390.655 923.939
14603 2 -5.36604 -84.3724 -15.09 10.0236 138.966 -302.671 -20.7169 41.7244 22.9236 -77.4339 403.498
7204 1 -3.61776 -85.2492 -20.6442 172.552 -351.546 425.708 -78.8606 -168.878 50.6305 -393.249 763.775
17001 2 0.8434 -89.9423 -18.2906 -102.428 143.223 -203.327 59.9049 130.09 8.67946 -81.0542 396.325
14694 2 3.81395 -89.9474 -19.1984 -98.1338 75.1535 -139.907 -6.39986 -19.306 -119.775 -80.1635 288.603
11929 1 4.15704 -89.5812 -15.3394 410.398 -432.461 410.542 89.6101 8.56555 -39.4113 -342.791 859.943
11919 1 3.26036 -89.472 -20.6725 147.224 -90.5364 310.771 -70.0313 37.3662 213.384 -382.482 526.938
6924 2 0.387983 -88.5492 -15.5771 -105.957 247.095 -278.998 -83.3428 78.1031 61.2985 -89.1585 515.841
7327 2 3.01715 -88.5258 -15.6892 -177.581 268.942 -221.578 -88.1963 22.5218 13.7616 -95.115 496.376
19397 2 2.05236 -88.576 -20.1498 -98.7087 100.95 -153.385 24.0876 -2.04633 -84.8787 -78.6597 277.734
9243 1 1.04618 -88.4334 -18.949 264.29 -346.527 271.028 -22.4839 -102.401 49.6309 -374.278 646.237
14679 1 1.67604 -87.7375 -16.0622 303.391 -577.108 451.849 201.796 -92.2971 -69.2148 -349.881 1044.09
9428 2 1.59542 -87.6261 -17.6915 -161.917 235.936 -121.887 -53.9001 20.3636 7.62305 -84.9532 392.553
7423 2 -0.37325 -87.9134 -19.6031 -99.7407 204.774 -185.4 34.9404 74.3068 -13.0637 -75.7251 383.263
11934 2 1.70316 -86.1851 -15.5742 -140.655 278.264 -252.259 -86.0365 19.1705 4.41277 -95.2843 508.005
12002 1 1.49559 -84.6039 -15.3749 248.162 -442.296 469.502 91.7296 -9.45943 81.6596 -341.594 850.921
2118 2 4.26024 -84.4573 -17.2384 -101.391 207.257 -136.721 -16.2745 -77.4896 -51.8824 -83.3777 366.471
17084 2 2.90043 -83.9428 -15.137 -90.2393 252.311 -218.348 -1.58487 -25.3945 -58.8823 -92.0612 435.867
7400 2 3.57017 -84.2287 -19.9378 -102.958 132.502 -96.0399 -39.6864 -58.2042 -4.30394 -79.0157 262.306
24400 1 4.42828 -84.0568 -15.658 139.17 -494.506 407.476 -10.4435 91.5696 132.163 -361.818 849.373
11914 2 5.07664 -89.573 -16.5892 -149.355 181.366 -171.595 -11.6841 -95.6091 -33.7137 -90.5922 385.316
21706 2 0.662431 -83.9092 -16.5784 -134.851 199.037 -176.881 -25.4634 -3.45333 -64.7289 -92.2734 376.605
14485 1 5.09017 -89.8419 -18.2668 272.352 -255.996 323.295 41.3333 190.284 233.345 -364.714 765.351
12010 2 8.3507 -89.1589 -18.1268 -168.634 210.964 -191.919 35.9178 -77.988 -55.4255 -79.2218 429.894
12503 2 7.2583 -88.7893 -20.6833 -173.044 133.901 -92.1969 -9.64405 -114.108 -129.463 -79.9525 406.889
14592 2 5.88095 -88.5443 -18.7112 -140.155 164.751 -138.377 27.2849 -100.574 -108.991 -83.254 400.805
16983 1 7.36586 -88.2755 -19.1444 328.944 -356.333 266.994 -70.0542 156.059 194.646 -371.28 795.259
11997 2 7.42243 -86.678 -19.1896 -172.916 157.335 -97.1068 24.3102 -59.1823 -49.5741 -82.0074 330.802
17013 2 10.2594 -86.675 -18.3014 -116.883 104.02 -125.032 28.0749 -58.5939 -15.7789 -78.4516 253.133
26897 2 8.50157 -85.9325 -16.3576 -126.727 161.398 -147.436 23.7668 -57.1912 -34.3752 -81.5273 323.209
21901 1 9.53574 -85.4464 -17.5252 257.395 -271.362 282.492 -52.9787 92.5246 22.6629 -373.928 573.696
11810 1 7.37587 -85.0723 -19.393 305.936 -295.194 148.841 46.0385 111.168 26.6304 -373.732 580.657
19306 2 8.6855 -84.6357 -18.6077 -136.557 158.747 -106.514 5.22666 -42.5257 -2.28656 -79.7139 291.132
22195 2 10.6938 -84.5217 -16.7974 -105.448 148.995 -162.756 31.8622 -39.8644 -7.2054 -79.1472 300.959
17096 2 6.01426 -84.3847 -19.0048 -120.348 157.768 -104.79 -54.0403 -73.9078 11.0378 -79.6156 314.289
24493 1 8.47926 -86.6817 -14.9592 198.171 -307.623 334.258 -70.0143 111.532 100.22 -372.281 652.177
24513 2 9.56823 -87.9009 -14.9238 -95.0612 135.989 -177.989 21.5394 -19.9364 -48.3249 -77.8296 298.349
14531 2 7.33005 -84.9475 34.822 -181.055 124.387 -54.2369 -26.7606 -73.1138 -29.7102 -82.639 302.449
1824 2 16.6619 -89.4543 -15.5952 -196.626 201.941 -222.238 8.3127 -40.1009 -66.6578 -75.7904 433.683
19425 2 14.2487 -89.2525 -16.3776 -142.753 200.579 -185.933 -54.0824 -20.4592 -52.2155 -69.4022 390.866
17109 2 11.7737 -88.3896 -20.083 -146.881 183.455 -141.916 -32.3688 -60.808 5.48276 -71.7213 349.045
17489 2 12.543 -87.6996 -17.5709 -74.2053 117.362 -142.386 -34.43 0.59254 -39.6676 -70.4575 250.371
12183 1 13.8329 -87.7446 -16.6429 170.98 -286.737 354.843 123.984 16.2609 135.752 -391.69 655.486
17187 1 11.6427 -87.2642 -18.8495 223.604 -223.077 237.042 -6.97283 97.9336 20.3167 -387.216 485.658
24606 2 13.6744 -86.9365 -15.2587 -83.6198 146.949 -204.309 -62.0579 -38.3971 -69.4958 -74.659 354.993
19403 2 15.1355 -87.0185 -17.3338 -118.307 145.607 -166.397 -51.5302 -14.2546 -72.9463 -73.0929 330.445
14896 1 16.7084 -86.5641 -17.3553 289.147 -317.342 321.843 30.0014 64.053 158.555 -386.122 692.21
17039 2 12.3659 -85.9302 -19.4999 -112.851 102.445 -102.951 26.5285 -44.5863 -15.8573 -76.3376 230.539
19387 2 14.3129 -84.3998 -14.9946 -99.0999 180.268 -216.173 -21.8264 -37.3236 -42.4534 -74.0787 368.069
27349 1 13.0113 -84.8197 -20.4759 195.819 -180.723 231.343 -56.7378 62.8583 -18.9195 -378.506 423.092
12223 2 17.0116 -85.3942 -18.3897 -134.7 140.69 -118.367 -10.5555 -21.9243 -73.229 -74.1895 299.119
7115 2 17.1329 -86.2286 -15.8691 -125.546 170.868 -214.697 6.22245 -19.1259 -60.1478 -75.2425 366.472
27201 2 19.1592 -89.5466 -16.3837 -141.381 164.678 -163.209 40.7959 -18.7403 -42.5936 -72.4404 335.139
24378 2 17.5109 -87.9349 -17.612 -185.286 175.509 -145.464 -0.780486 -44.1335 -39.7187 -73.8283 357.727
14416 1 17.6577 -89.3783 -16.9537 413.813 -385.943 298.246 -36.9427 86.119 47.4726 -387.688 770.484
21988 1 19.169 -89.2861 -20.8662 384.966 -392.777 330.407 -180.561 -0.405243 30.8861 -388.077 816.148
22012 1 19.9743 -89.0393 -15.1472 172.246 -325.972 397.993 -63.2186 -7.19872 138.096 -389.27 693.55
22361 2 21.5068 -88.8422 -15.3086 -92.4283 150.86 -179.88 46.7448 -11.7054 -81.455 -72.6847 339.093
17179 2 19.884 -88.7872 -19.4982 -144.279 133.944 -152.983 84.4698 2.55353 -24.9291 -72.6914 321.239
2030 1 21.2995 -88.8022 -18.8204 191.107 -213.28 320.573 -254.522 -15.2464 119.16 -390.136 685.772
14433 2 22.4591 -88.5473 -19.8639 -57.6791 51.8148 -166.114 146.037 1.5182 -48.5797 -74.4662 326.63
17100 2 21.5592 -87.3844 -17.9341 -61.4815 103.331 -155.456 66.9405 -32.3869 -39.0411 -74.1417 269.527
19588 1 22.2445 -85.9267 -18.148 96.9467 -221.015 321.393 -15.5845 80.9304 22.0905 -384.099 494.654
16817 2 18.483 -85.6015 -20.5279 -126.957 153.284 -146.759 -14.9361 -7.34073 -34.0663 -74.7599 297.975
19500 2 21.2332 -84.7178 -18.17 -90.6124 133.449 -165.674 -33.6268 -18.3113 -27.0167 -72.7503 281.503
15064 1 17.7903 -84.492 -19.4421 238.664 -273.935 254.805 -15.0491 -6.37356 81.6423 -384.115 540.454
29601 2 23.1005 -86.1795 -19.5182 -22.3157 71.2584 -163.227 25.9755 -28.1281 -35.027 -79.3218 223.329
16969 1 23.0281 -88.8441 -14.8421 273.14 -370.956 331.75 -64.6626 66.5657 205.995 -386.347 780.501
17213 2 19.2431 -87.5802 -14.8753 -106.154 160.948 -212.09 31.6884 7.74089 -53.3678 -74.0906 350.14
19532 2 23.2588 -85.7262 -16.8881 -80.4389 97.4845 -136.461 16.0827 -60.0297 2.36966 -76.5708 237.416
29792 2 27.8174 -89.5877 -16.293 -260.051 218.435 -124.527 127.684 -28.0145 -148.682 -77.2708 547.77
24558 2 26.4111 -89.6478 -18.6378 -228.75 154.054 -138.408 66.0565 -74.1441 -192.203 -78.728 510.417
5 2 28.6378 -89.3979 -18.682 -248.962 110.583 -128.569 67.0736 -48.3587 -138.57 -78.8191 422.608
24675 1 28.3069 -88.8189 -14.9547 369.618 -442.562 336.692 -338.32 9.55454 186.844 -379.434 1040.37
14510 1 26.2847 -88.1814 -19.3611 308.62 -75.43 293.156 -75.5946 117.918 156.834 -354.665 523.873
10 2 24.9595 -87.97 -20.2016 -43.1544 -3.58221 -169.876 67.6908 -26.9474 -40.6085 -86.2683 208.592
27371 2 27.4905 -87.8661 -20.5302 -165.947 3.62454 -164.4 25.2778 -55.2358 -21.5862 -95.2955 202.391
22367 2 23.9079 -87.642 -15.4869 -125.99 175.69 -143.195 54.3358 -64.5988 -89.5865 -75.4708 376.764
2032 1 23.427 -87.4668 -20.5176 3.68339 -20.4858 320.691 -178.895 1.56111 66.5218 -374.152 466.94
27299 2 28.5701 -87.3285 -15.4768 -150.919 146.124 -118.461 130.233 29.1443 -49.5896 -81.0118 374.772
14598 2 26.5057 -87.1933 -18.1372 -154.901 61.5396 -96.5297 49.3226 -42.4672 -32.9684 -89.3329 231.493
29761 1 24.2501 -86.1107 -15.6515 216.305 -253.548 250.86 -84.3681 139.569 -4.7397 -382.202 563.96
20152 1 26.5599 -85.7914 -17.3753 252.032 -201.342 183.283 -135.942 42.1916 -45.0353 -364.388 495.955
27079 2 25.7153 -85.7415 -16.0686 -119.397 111.746 -102.609 56.7173 -51.1479 25.9231 -79.3709 263.331
24611 2 28.1276 -85.5049 -17.0509 -111.181 110.475 -100.46 110.879 28.0136 4.87611 -84.8865 293.561
24972 2 25.9562 -84.8376 -18.5796 -135.677 147.887 -133.16 25.5152 -29.299 16.1171 -84.9648 291.563
29667 1 25.7493 -84.3236 -20.0832 217.299 -349.117 314.879 20.7766 -15.4144 37.037 -365.038 625.894
5162 1 28.9917 -85.8354 -15.7206 217.042 -211.247 187.859 -201.369 -51.802 29.7557 -369.166 551.488
2223 1 28.9503 -88.7018 -20.0953 294.611 -51.8138 313.035 -77.7487 144.762 64.7205 -361.859 469.362
7492 1 35.1164 -87.6725 -16.6956 -46.9395 36.9922 429.695 68.9852 60.4351 32.0579 -394.597 471.739
4740 2 34.5735 -88.4984 -15.3736 -1.93988 15.9912 -262.961 -17.1606 -40.5612 -48.7057 -64.6993 293.377
29289 2 34.4948 -88.1272 -18.1154 -5.2521 -8.08921 -203.528 -9.48338 -4.9632 9.13264 -67.9432 198.376
9928 1 34.1122 -87.603 -19.5419 -49.0773 74.2337 337.389 -9.23602 -35.9246 -81.8403 -389.518 375.669
2515 2 30.0552 -87.6106 -20.1108 -25.5113 9.93372 -158.888 75.7366 -35.9546 31.7773 -86.5212 218.835
4823 2 32.6844 -86.9038 -19.4835 24.5659 -11.276 -145.946 31.7156 12.4529 65.3517 -77.8291 201.353
9724 1 31.1708 -86.4473 -19.7501 -8.59096 -89.8934 283.732 -147.321 -7.45226 -146.483 -368.005 495.457
128 2 30.6202 -85.6293 -15.6016 -70.5868 82.0942 -123.176 96.0715 -3.08386 -34.8109 -83.1361 255.851
27012 2 34.9661 -86.0754 -16.6459 13.5721 29.1922 -218.384 -28.0435 -45.9042 11.8692 -76.3008 258.407
1781 2 30.5706 -85.7223 -18.4977 -33.3556 84.1497 -121.919 101.08 25.0939 48.7239 -84.4843 267.806
29769 2 33.0419 -84.8543 -15.6305 -53.3666 113.079 -189.271 50.6372 -30.5339 -9.09261 -81.7499 282.014
2044 1 34.4189 -84.5501 -16.3997 48.0236 -251.658 436.799 -0.343615 51.6214 -38.0169 -376.028 608.108
22276 1 30.3016 -84.1783 -18.3255 136.775 -280.885 288.966 -198.119 -60.2293 -102.534 -363.32 649.109
27562 2 34.0757 -88.7078 -20.7876 -9.05457 -14.7841 -204.447 1.62992 21.3404 33.7813 -67.3521 204.669
2608 1 -21.9145 -83.5625 -18.7023 20.3227 -305.737 487.658 58.2889 -45.1462 -46.605 -378.808 707.05
24612 2 -20.6604 -83.3108 -19.8031 -87.1604 115.065 -170.297 5.27632 50.411 -11.9368 -78.9495 269.73
7419 1 -19.1927 -82.9525 -20.2422 274.655 -353.34 191.964 25.2612 -106.576 -9.63613 -376.22 620.93
4955 2 -22.7579 -82.1096 -18.5706 3.71508 165.432 -237.493 -33.5205 -25.7372 42.7373 -77.4192 366.304
29750 1 -23.3749 -80.5857 -18.604 10.5631 -242.75 389.651 -10.2421 68.8037 -77.8939 -374.623 580.192
2100 2 -23.221 -79.8146 -20.0445 -32.8135 103.138 -136.03 12.8252 -40.6463 16.6473 -79.2858 222.374
14962 2 -22.5376 -79.5683 -17.5775 21.1043 101.463 -217.656 15.7962 -20.0982 44.4872 -82.3692 300.912
2586 2 -20.4128 -78.9944 -16.5212 67.7526 82.6022 -200.592 -24.7598 53.4906 44.142 -83.6234 304.109
2025 2 -22.807 -78.6646 -15.197 5.51753 63.1932 -177.078 41.9771 5.44274 24.5156 -81.9004 233.189
2522 1 -21.9185 -78.533 -16.5241 -110.281 -153.649 419.049 -14.1414 -13.1247 -71.3916 -368.75 566.951
4803 1 -24.336 -79.1627 -14.9832 136.225 -203.476 330.487 -145.593 -3.78653 -21.2422 -368.341 533.024
5039 2 -24.4069 -80.7748 -14.719 -73.2932 95.717 -163.041 65.7095 -4.40041 0.341794 -81.1033 254.557
4971 1 -19.0364 -78.712 -17.2489 65.3356 -231.208 315.731 55.642 -194.977 -46.3474 -358.606 595.541
12497 2 -24.9477 -80.3085 -18.2979 -43.5765 103.151 -233.574 64.2898 7.3705 5.23264 -82.8377 313.29
27827 2 -19.4318 -77.9683 -18.6462 -52.3012 95.1231 -126.557 -21.2039 67.4362 3.39052 -85.7955 230.697
10187 2 -18.7189 -81.7182 -19.4161 -132.436 186.643 -128.734 4.65909 74.2711 15.8608 -81.9735 343.529
7772 2 -13.5 -83.4436 -15.6764 -98.0579 231.48 -214.141 -88.5262 53.0091 74.4807 -78.3526 457.063
9814 2 -14.154 -83.5437 -18.176 -149.879 221.821 -204.259 -90.8144 -10.7565 68.336 -78.144 447.694
7484 2 -15.9238 -83.0755 -15.294 -160.494 269.248 -224.028 9.45186 57.4846 40.0011 -87.5566 480.624
9635 2 -14.9142 -82.8002 -20.729 -152.092 162.047 -115.893 -47.426 -9.86566 9.7957 -75.7582 309.757
12289 1 -17.4447 -82.679 -15.3048 337.375 -545.618 423.086 -120.418 -116.231 -73.0017 -358.891 981.185
9964 1 -14.7927 -82.377 -19.1758 321.891 -371.716 254.443 94.5621 53.8371 -61.7556 -376.742 697.008
7951 2 -17.9849 -82.3854 -16.7802 -142.008 235.846 -212.184 38.4661 92.5179 53.3443 -87.5385 461.377
7326 2 -16.1932 -81.7733 -18.6542 -159.271 175.8 -125.88 -0.513148 9.73151 44.5093 -84.2852 329.283
2583 1 -17.7847 -81.5087 -18.1149 267.466 -406.108 318.279 -13.1864 -174.479 -90.7696 -361.974 779.152
2314 2 -13.8276 -81.0994 -18.9098 -154.34 164.601 -112.747 -6.05053 -24.754 34.5214 -77.3374 309.372
12403 2 -18.0587 -79.9982 -17.5259 -114.584 183.899 -147.663 -21.9021 107.555 41.7522 -89.2221 376.076