ITEM: TIMESTEP
80000
ITEM: NUMBER OF ATOMS
29952
ITEM: BOX BOUNDS pp pp pp
-2.5093087473165852e+01 3.5078381815859899e+01
-6.2835421110868488e+01 7.2820715452868484e+01
-2.0985542515027589e+01 3.4853395661184415e+01
ITEM: ATOMS id type x y z v_StrAtomXX v_StrAtomYY v_StrAtomZZ v_StrAtomXY v_StrAtomXZ v_StrAtomYZ c_PEAtom v_VMS
22290 2 -23.0213 -59.3983 -18.4038 53.304 6.07323 -67.5937 -24.8483 -1.05453 2.98162 -94.9933 114.102
291 1 -21.5506 -58.9871 -18.9249 -106.489 21.1678 108.778 -2.06791 11.2681 1.13968 -348.097 188.556
5563 2 -20.5314 -58.7686 -17.6884 51.4563 -14.9909 -51.3275 0.48707 21.6358 -19.4041 -94.3869 103.367
10210 2 -21.1244 -60.2885 -19.7415 22.4933 -5.70904 -18.9339 30.3466 -15.4861 18.9751 -91.784 76.848
4780 1 -20.7408 -61.8243 -19.8947 -21.0572 16.504 -9.22182 -125.579 -0.762515 -31.1779 -353.095 226.572
397 1 -24.6519 -59.4696 -18.5037 7.19686 -26.1678 77.965 46.8401 -37.002 -19.4745 -342.396 142.512
10279 2 -21.2612 -57.5758 -19.735 34.5406 -36.3347 -32.983 -3.59705 -22.6161 -19.0762 -91.298 86.3827
2876 2 -23.6332 -60.806 -15.5227 29.9543 0.712272 -44.5843 -32.9736 -5.9853 -28.7562 -94.4215 100.406
4977 2 -21.4832 -62.1888 -16.0888 28.8872 -22.9113 -64.9946 43.2718 14.561 -1.99666 -95.6133 113.575
5105 2 -19.417 -58.6341 -15.4698 16.3539 -0.0135915 -24.7828 -0.535357 20.0455 -14.776 -93.3564 56.1083
5183 2 -20.4821 -62.5459 -18.5001 23.0514 -8.88089 -10.2178 50.9531 18.4974 10.9614 -92.0565 101.192
4920 2 -19.2812 -61.6521 -20.7191 40.1232 -47.0075 18.5621 52.8452 -13.2537 -8.36604 -88.3197 123.664
2156 2 -25.0472 -58.6877 -15.0756 -56.9353 58.1004 -5.11894 -23.1849 -44.9911 -5.68587 -92.2137 133.19
202 2 -25.0567 -57.909 -18.4262 -28.6774 -20.844 -41.825 -18.3231 20.6236 23.501 -97.2887 65.4011
2689 1 -22.1992 -61.2917 -14.9786 -98.6059 63.522 97.3023 -35.3451 -16.2267 13.3195 -346.506 194.867
7648 1 -19.2044 -58.3047 -16.9563 -89.4592 8.00839 83.2202 6.17894 -50.1077 40.0031 -346.347 186.909
2523 1 -25.1192 -60.2841 -15.5959 23.3991 -54.5244 48.6241 32.6382 53.3583 65.7109 -346.713 182.66
7599 1 -25.1334 -57.0848 -15.1545 126.837 -61.3035 -2.03873 57.9002 91.136 -104.111 -348.322 308.628
29874 2 -21.454 -59.9546 -14.5672 44.3807 -30.5225 -34.6518 26.2139 19.6734 3.46184 -91.5186 95.8928
5090 1 -16.7381 -60.1728 -17.0343 -63.9943 76.0394 -18.449 -14.0586 -20.0837 42.2203 -342.851 149.855
25065 2 -15.5158 -60.6737 -17.9658 3.42874 -39.8743 32.2252 3.18664 -13.3019 -3.92387 -95.2908 67.5192
7292 2 -17.4071 -61.4936 -16.3078 26.3172 -39.5188 -12.7281 1.94265 9.91373 -22.2221 -95.494 71.2458
10179 1 -14.1285 -61.3989 -18.4825 19.2245 84.1994 -93.8971 -39.9365 59.5079 8.52321 -345.886 199.986
2616 2 -17.9139 -59.1735 -17.6072 48.0571 -36.6815 -9.95616 0.767474 9.45668 -25.1281 -94.8774 88.2867
370 2 -15.7165 -57.5346 -19.1796 5.07146 -31.2976 37.498 20.2573 -14.1615 3.60842 -92.8619 73.6566
2312 2 -15.8885 -59.3112 -15.9746 12.4902 -11.6307 1.49213 16.4877 28.5177 -23.1609 -97.2748 72.8154
12435 1 -16.3333 -58.4806 -20.338 -42.4068 96.7272 -96.3115 -10.7441 26.2403 22.765 -350.581 183.659
2815 2 -17.2553 -59.8095 -20.4368 16.6974 -62.4744 41.8812 1.24397 -8.71617 -20.6165 -91.6976 102
27591 1 -14.6116 -58.7647 -15.2338 24.2788 -11.3648 -24.1051 -33.7961 -52.6672 46.3591 -338.701 141.712
10317 2 -14.7242 -62.3719 -19.656 -46.2853 -18.1752 23.9324 20.6732 -32.5601 2.08144 -92.2016 90.678
7399 2 -13.3185 -62.0215 -17.2162 -23.8946 -18.0321 41.1868 1.70795 -16.5355 -13.8028 -94.1064 72.7254
7529 2 -13.2694 -59.0162 -16.0267 -20.0018 -5.7956 33.1273 29.8432 -15.6677 -11.8556 -97.4182 78.1006
7581 2 -17.3071 -57.3825 -21.0469 1.92089 -38.7174 43.2087 -2.29883 -7.32942 -10.5941 -90.5989 74.4831
9920 2 -14.8376 -57.2167 -14.9963 -14.7313 12.7392 -0.236369 -1.36888 26.467 -4.66851 -96.6775 52.3361
29670 2 -13.0269 -60.3298 -19.0634 -15.5202 -43.2006 60.8245 24.5862 -39.492 -15.8177 -95.3744 126.297
12604 1 -8.69087 -60.5235 -18.4991 15.2603 -1.04878 -59.5975 -26.0683 16.504 58.4171 -349.423 133.2
7391 2 -7.9669 -60.4938 -17.06 -29.8675 19.627 24.9078 -7.17822 22.5326 -41.2707 -90.9291 97.6038
9878 1 -11.5493 -59.976 -19.6861 19.5251 67.3198 -111.095 -32.9608 20.1707 25.6747 -343.214 179.015
2482 2 -10.2983 -60.3091 -18.7351 5.53681 -20.229 33.4619 17.8768 -21.4624 -10.4826 -94.0011 69.5234
7614 2 -7.97825 -59.3616 -19.2979 -16.5331 8.42951 -0.284783 44.1366 -17.6006 3.50237 -94.544 85.392
10459 2 -11.4535 -60.7666 -15.8476 -15.4191 4.78178 1.159 0.396084 -41.829 -5.87409 -93.8125 75.5049
17472 2 -8.27884 -61.7964 -19.4301 -30.3238 26.179 15.6088 10.6403 6.9105 -24.3174 -92.4364 70.4555
7703 2 -10.6597 -58.3181 -16.4831 -3.08909 22.6725 21.1149 67.8992 -38.6288 4.20922 -94.2575 137.792
4802 1 -12.131 -62.1921 -16.0751 56.9392 -30.9601 -54.1957 64.8039 75.3761 47.993 -348.255 216.476
5182 2 -11.4875 -58.3992 -20.0602 -24.8969 -28.4836 34.6415 25.2188 -3.52666 28.3056 -95.7276 90.1118
10478 1 -11.6984 -59.2395 -15.6464 41.8937 -9.41996 -62.2872 -104.858 78.0383 12.0753 -344.063 244.61
9891 1 -7.49569 -62.1706 -20.7803 23.5793 -103.77 32.8587 -30.7444 -24.7043 10.6766 -350.512 149.981
15191 2 -7.53866 -56.8902 -19.6031 -19.8881 10.9213 7.0145 64.107 -43.4066 42.3587 -96.8827 155.591
2762 1 -11.8678 -56.9184 -20.7048 74.6526 -3.06354 -110.402 -56.8724 0.756748 -40.5918 -347.517 201.374
7501 1 -10.1108 -56.8015 -16.5803 -11.4915 2.9574 -31.1421 -174.221 53.7261 -15.2412 -341.356 318.268
7392 2 -12.7595 -62.6603 -14.7069 -59.168 29.3968 34.3864 -27.6526 -44.3233 -25.0944 -94.9049 135.6
9901 1 -7.15245 -58.3131 -20.2141 12.8744 -21.2483 18.9617 -151.734 61.566 -35.4063 -342.808 292.593
5198 1 -6.94243 -60.971 -15.9023 115.642 -61.4874 -13.597 32.2289 -101.291 70.6209 -353.444 272.109
7864 1 -2.19322 -60.2501 -19.6902 17.4004 47.5461 -58.9152 -52.8353 32.6533 50.092 -354.478 167.733
5000 2 -3.32612 -61.3948 -19.6847 -21.5357 1.38938 5.55978 49.616 -26.9152 -46.2563 -89.1658 128.903
12391 2 -5.93908 -62.2151 -16.4152 -65.0291 -15.5518 23.6013 -34.1036 32.8254 -56.9554 -92.0381 149.571
12394 2 -1.89118 -58.5445 -15.7424 -13.3277 -50.9135 58.5511 10.9344 3.50815 -54.5094 -88.0899 136.346
10087 2 -5.58992 -58.5923 -20.0013 -8.91368 24.5048 -33.8857 39.2837 -39.7835 -10.9665 -95.7719 110.966
12516 2 -2.99961 -58.9409 -20.2773 10.8569 2.15753 -8.44213 -15.5278 -25.0007 -27.754 -94.0528 72.0385
12482 1 -4.20652 -57.9265 -20.4463 -7.44735 -13.6567 42.8092 6.55002 83.4921 33.6275 -340.419 165.258
5060 2 -6.06965 -59.7405 -15.2772 -66.4502 54.2322 16.7003 -15.2705 50.4165 -17.167 -89.7421 143.71
29843 2 -5.90143 -62.2394 -20.4677 -11.1961 24.1467 -11.4268 10.5097 -12.5996 -10.1798 -91.1951 48.7423
15055 2 -1.70071 -59.7577 -18.2354 -43.2481 -46.9313 70.8535 24.6645 16.3265 -38.7135 -87.8129 143.436
10071 1 -4.35736 -62.5969 -19.9373 92.2414 -12.6897 -64.9722 -72.7769 53.0116 73.2081 -355.81 244.189
7710 2 -3.46034 -62.7353 -16.2459 -26.6471 -28.7536 20.0238 20.5361 33.5964 -32.1327 -90.5318 100.149
12297 2 -0.986101 -60.7904 -20.6076 -10.4345 -49.8919 28.0169 16.6864 -43.8123 -18.703 -91.6364 110.435
7766 1 -1.04284 -58.7933 -17.1114 74.9295 143.14 -146.401 -29.988 -68.3949 89.5751 -357.683 330.968
10111 2 -4.13239 -56.6172 -19.5268 -14.8066 -29.3346 4.14875 -1.23223 -41.1374 6.9856 -98.364 77.9331
10306 2 -0.915613 -57.3002 -17.7153 -32.9184 -72.7867 57.517 -10.6119 44.1382 -27.0159 -90.2967 147.464
7677 2 0.536791 -59.1111 -16.7669 -27.5707 -78.4672 38.1924 3.68982 26.1929 -34.4676 -88.4424 126.196
12865 1 2.0047 -58.8618 -16.0963 5.32277 159.641 -59.5051 -2.2281 -49.4659 72.5436 -358.732 247.314
7615 2 3.21851 -59.8596 -16.4648 -10.5797 -82.09 46.0973 7.44081 6.23715 -11.1136 -85.9358 114.159
15077 2 2.49739 -57.3935 -16.5399 28.5829 -79.3103 18.6362 17.4572 23.4898 -15.7495 -87.4746 118.239
5180 2 3.26115 -61.4627 -20.2955 -38.8097 -70.4356 38.9863 -35.0278 31.9666 -58.8955 -89.4311 163.295
27366 2 4.14591 -61.7552 -18.0024 -49.3367 -43.7338 43.4019 -10.2256 14.6601 -6.9576 -83.4084 95.9994
27362 1 3.65979 -62.6127 -19.2117 72.5605 102.068 -57.1923 63.0251 4.73821 131.89 -364.263 292.753
9796 1 4.57288 -60.6499 -16.9361 51.6923 103.09 -93.8339 -20.657 -35.8039 -0.533327 -367.675 190.856
17814 2 -0.563412 -56.5314 -20.0631 16.0114 -76.6234 78.5137 -25.8528 -12.4344 -9.48678 -92.9852 144.971
24780 2 5.47643 -61.5316 -15.8715 -38.9969 -23.5295 27.0709 -13.1234 20.4808 -13.3112 -82.8025 76.7393
15359 2 5.47694 -59.3854 -17.4103 -14.1203 -44.884 33.8462 50.7046 17.1514 -10.0786 -84.3543 116.717
17463 1 6.55565 -58.1465 -17.721 49.6304 104.897 -110.404 -111.42 0.085689 48.912 -360.023 286.235
10074 2 6.78375 -57.964 -19.3646 -4.54165 -74.1956 53.3064 50.8267 6.82104 -15.0086 -87.8933 144.197
15297 2 7.87909 -58.5982 -16.9554 -59.0893 -12.0885 34.3422 -0.744075 -44.5951 -25.3018 -87.2104 120.148
15340 1 9.28984 -58.6668 -16.0476 183.248 -47.7731 -61.335 105.76 161.464 41.4388 -365.157 416.662
12291 1 9.36793 -61.8184 -15.3087 88.3805 20.2026 -17.6961 153.776 107.11 74.4707 -367.186 361.476
10003 2 10.1937 -59.598 -19.731 -47.1272 20.4328 -9.79899 -35.9004 -16.8285 -34.9733 -88.356 108.726
20073 2 9.27734 -60.1216 -15.2882 -84.2388 54.56 7.60692 -78.8507 -58.6846 -38.6309 -82.2344 220.031
24967 2 9.64304 -57.3365 -15.1964 -77.3833 -37.7418 47.6297 -9.59479 -60.6135 4.01929 -86.6172 153.592
19977 2 10.3264 -58.6645 -17.329 -51.7082 8.99659 -2.66179 -69.3838 -97.0561 -12.977 -84.5676 215.222
24673 1 10.5894 -58.3206 -18.8825 56.875 4.95035 27.0885 129.33 124.712 32.003 -358.193 319.293
15076 1 6.62413 -57.0986 -20.7598 -74.1296 183.934 -97.8458 -102.474 -56.8199 35.5581 -352.707 343.891
22469 2 9.68613 -62.4586 -16.8643 -49.7877 -20.6695 22.0759 -36.9676 -38.4201 -42.563 -85.2756 133.726
22372 1 10.7555 -60.7649 -20.6754 113.556 -14.9325 2.88432 -47.1913 -65.0608 115.459 -356.483 271.863
7556 2 9.69211 -61.9312 35.0465 -62.3133 5.57078 -35.3425 58.5342 15.2921 -39.7922 -88.0552 138.692
17399 2 7.90319 -62.3218 -14.9502 -25.1837 -5.78409 -16.9195 -55.7173 -38.5765 -26.293 -84.4608 127.028
15162 2 10.0072 -56.8501 -19.1815 -21.9725 -57.371 34.1001 -34.7189 -51.8183 -6.09614 -91.3245 134.778
10542 2 6.04189 -56.7505 -17.2118 -16.5095 -105.757 81.8054 55.2358 -1.61545 -1.47728 -90.0546 188.607
19872 2 12.0314 -61.4108 -19.9536 -20.3226 -18.7245 -63.8787 11.1434 20.3923 -75.7936 -88.6273 144.303
10082 1 13.5589 -58.9358 -18.8414 -43.3817 45.5956 162.901 4.365 -69.6261 84.9552 -363.323 261.472
22760 2 12.1722 -58.1735 -19.173 3.13194 -13.5804 -56.8408 -30.2989 -15.0653 -26.3451 -87.7439 91.6019
12295 2 13.2249 -60.4089 -18.0889 4.08482 -25.1949 -78.3781 -1.82402 31.129 -95.9882 -85.4823 189.212
12475 2 14.5686 -58.0364 -17.9829 13.6862 -1.79185 -98.6232 35.4069 83.2989 -18.1916 -81.538 191.532
27373 1 16.0759 -57.7472 -17.561 9.46381 -36.8071 140.35 -55.9866 -134.374 35.5181 -371.23 304.443
19766 1 12.8625 -61.871 -18.681 -1.4805 63.6303 121.644 5.02941 -28.0866 223.886 -359.682 405.215
22185 2 14.452 -59.3497 -20.0781 17.1147 -55.1858 -38.5625 -5.30863 11.9691 -42.6482 -87.3425 101.355
24665 2 16.3901 -61.8606 -17.4897 -0.478108 -64.8478 -43.0774 10.8647 44.5177 -52.8604 -84.2924 133.785
29878 2 16.5771 -59.069 -16.8295 -43.4216 3.01865 -49.143 33.4116 73.9502 -56.6958 -81.5879 178.475
12683 2 14.2624 -62.5952 -18.9397 -5.21157 -43.5083 -27.3567 -19.5339 -1.52861 -71.8819 -85.8179 133.273
14899 2 16.9888 -60.9134 -14.8976 -49.9202 -68.2213 38.9353 46.1298 44.5656 -17.115 -83.2719 151.912
17652 2 17.0424 -57.6624 -18.8142 -10.1071 5.97014 -50.2215 36.953 46.6706 -6.72843 -83.9865 115.236
2320 1 17.0056 -60.671 -16.5211 54.3004 63.5532 53.4544 -65.1005 -126.157 78.5684 -368.515 281.201
16904 2 11.9266 -62.8463 -17.8115 -33.173 -43.2814 -27.1408 -1.50408 8.96272 -110.348 -88.0831 192.295
17473 1 20.4121 -57.5056 -16.656 98.0931 -17.583 -2.17679 34.4776 -99.0941 41.3776 -363.067 223.601
24583 2 19.2872 -57.62 -17.8622 -50.7798 7.98302 -18.4842 4.84565 61.9028 -13.4005 -84.5658 121.257
20072 2 20.2933 -58.3704 -15.3399 -53.9397 16.0785 -13.2739 12.8831 31.5105 -17.2524 -86.2 89.8805
27659 2 18.589 -60.9787 -16.9989 9.51673 -16.2566 -25.8825 -11.9869 10.3566 -17.5926 -83.148 51.83
25258 2 21.886 -57.8861 -17.203 -36.2713 -16.5504 -14.7574 -31.8511 8.82639 -3.30589 -84.5889 61.1349
15051 1 18.5812 -57.4811 -19.3136 81.5415 -19.9683 48.2271 -12.2656 -71.0962 -21.1931 -366.648 158.098
29796 2 21.1092 -61.6133 -16.8091 -36.3042 -12.9016 -14.9289 -18.3678 -1.45402 22.4444 -85.6584 55.0824
20154 2 19.4617 -58.6118 -20.1794 -43.5529 8.29508 -27.6773 -27.5622 22.7622 33.1502 -82.1477 96.163
27085 1 19.614 -62.2341 -17.0673 -32.3587 76.0675 46.6339 65.2076 43.6622 14.4749 -365.151 168.923
29945 2 20.4242 -61.2333 -20.5264 -45.2374 -23.8394 16.4164 -64.5529 12.6411 -25.105 -83.6694 133.459
22370 1 22.6977 -61.4387 -16.6943 102.553 -39.5472 26.8109 4.90251 -42.448 -62.8033 -364.348 180.213
75 1 20.4877 -62.8001 -19.9926 69.5369 102.344 -71.2861 105.694 -30.1913 26.818 -365.003 252.85
24941 2 19.6453 72.8494 -18.6096 9.95369 -72.5791 11.9954 -40.4366 -7.65381 -14.0374 -83.9639 112.502
22579 2 23.1223 -62.8495 -17.446 -26.5248 -39.2525 -21.5083 -17.2518 7.19619 18.1715 -86.8924 47.8524
24885 2 23.0288 -61.6105 -15.1418 -21.8469 8.44394 -4.63412 -4.99014 17.9964 23.1124 -86.5131 57.8039
27487 2 23.2457 -59.9975 -17.183 -58.0632 31.5681 -33.77 -5.50716 10.7524 20.9755 -83.002 90.5772
24865 1 23.4096 -58.3774 -17.2069 66.9095 4.91619 3.02172 19.5521 13.4295 34.7541 -368.135 96.3101
2795 2 23.9479 -57.9289 -15.6904 -26.2789 -14.9925 -1.69494 -21.7599 1.74219 -5.00037 -85.4989 44.2593
27557 2 24.2769 -57.6725 -18.3189 -26.8572 -24.3031 -19.2577 -4.21788 -52.4674 -24.752 -82.6901 100.969
25254 2 27.9324 -61.8841 -18.0749 -54.4076 2.25983 20.85 9.83073 17.5903 -1.65073 -88.1668 76.3977
2477 2 28.2401 -57.5184 -19.8607 -24.645 -1.79895 -10.1828 -48.2765 44.9539 -6.66059 -87.9782 116.568
2607 1 28.5903 -61.4618 -19.4837 75.8196 -61.0372 25.8693 -15.0801 -102.369 25.9737 -354.368 220.303
27631 2 25.8902 -57.3062 -20.4344 -34.8637 -7.15773 -6.39753 -61.9977 -17.0802 25.6217 -86.7245 123.146
29684 2 27.0323 -62.0658 -15.7192 5.53621 -20.5336 -1.82491 -19.1849 -45.2943 29.9753 -88.109 102.452
69 2 27.7484 -62.3456 -20.6183 -30.3356 22.1805 -14.2476 10.0435 78.7102 -13.7206 -91.6549 147.055
18044 2 28.7524 -58.5811 -14.956 -33.0199 30.9398 5.16404 -23.0277 -61.0001 3.8662 -86.6414 126.116
27424 1 28.2066 -62.5663 -16.699 44.7145 38.0211 -66.6981 -19.2764 65.2145 -39.694 -354.424 174.104
2598 2 28.8126 -59.8466 -19.2853 -63.9667 29.6604 -20.7296 -17.8118 39.6645 -16.2674 -89.0525 114.249
25243 2 34.9193 -60.1324 -19.8565 -14.6118 26.1193 -7.79298 -28.4373 19.0921 21.0651 -94.5946 79.2374
27200 2 34.8015 -60.1688 -17.1579 -16.9788 46.7113 -23.9561 -2.09113 2.09969 -23.1432 -95.4293 78.6298
25055 2 29.3567 -58.2453 -17.3121 -59.1354 26.5401 14.1148 -42.9044 -7.28568 16.992 -87.1596 113.921
27458 1 29.2521 -58.3874 -18.9073 44.9406 -34.3742 -7.78679 72.9793 -69.915 -11.2741 -358.227 189.506
29778 2 29.492 -61.768 -16.1271 -17.1559 -3.14329 15.4866 4.51004 -37.2159 13.2436 -91.4925 74.4765
29808 2 30.0941 -62.0274 -19.5757 -4.04529 28.3251 -42.3696 1.96454 37.6267 -6.17805 -92.9989 90.1696
4744 1 30.062 -58.2469 -15.8844 91.4579 -90.1331 -9.90577 50.8111 85.8994 -23.5119 -359.614 237.451
5309 2 32.0228 -62.0146 -16.4313 -1.43282 15.1103 -2.8541 -4.27873 -16.8434 20.1918 -94.1737 49.2783
2536 1 30.9286 -61.2401 -15.5049 13.6529 1.45825 -13.5126 13.2411 66.542 -30.0179 -350.479 130.645
25246 2 30.7704 -57.7227 -19.2615 10.1703 0.00509865 -17.9377 -26.9686 8.7925 -1.64917 -90.684 55.0425
5117 2 32.5387 -61.1514 -20.2818 -1.31353 55.6566 -55.7549 13.9369 -7.8494 -19.2041 -93.2071 105.759
27543 1 32.2014 -57.1596 -19.7833 11.7846 16.6693 9.48274 92.5531 -49.8886 33.6022 -349.321 191.292
198 2 30.9422 -59.6274 -15.7419 -22.1063 31.7625 5.08256 -16.5081 -34.1533 -2.2803 -89.7345 80.6781
7783 2 30.6784 -56.7528 -15.531 -15.1064 43.474 -4.18312 -26.1816 -25.5995 25.2145 -88.5807 94.0257
2514 2 32.9585 -58.5312 -20.1259 -26.8772 -22.9437 -18.6334 -29.0457 20.8307 -17.1656 -95.1727 69.0485
2308 1 31.5911 -62.4002 -20.0302 -20.8302 -84.3398 103.408 -4.73435 -24.8762 0.34458 -347.695 171.123
7527 1 33.5223 -59.8948 -20.671 68.7928 -44.0215 30.6402 39.7544 8.52192 10.4753 -346.244 123.154
2853 2 34.0449 -56.7192 -16.342 -39.6413 8.49491 -20.6283 -40.269 -23.1854 69.7942 -94.8688 151.177
2782 2 -19.1955 -56.7085 -17.093 44.7567 -14.189 -49.5688 7.59896 21.6964 8.8985 -92.9919 92.9236
25098 2 -23.6961 -56.3066 -15.5356 11.6349 -8.23631 -34.4281 -29.4088 -17.7057 64.6267 -93.0106 132.915
2619 1 -20.9303 -56.0776 -20.2171 -48.084 75.1617 2.49335 34.5627 53.6703 103.533 -358.126 236.424
15105 2 -20.3693 -55.2928 -18.9526 35.5968 -23.9588 -16.1985 1.96124 -4.7437 -20.4299 -88.6382 66.9037
2875 2 -21.6309 -55.4585 -16.8489 84.3801 -28.7286 -68.5993 -24.6272 -12.4177 39.5743 -90.6597 160.852
5091 1 -23.1881 -55.1956 -16.6508 -78.7614 17.2506 109.902 38.727 53.9492 -100.939 -349.963 265.509
101 2 -24.3307 -55.5549 -17.7366 -21.7999 14.9819 -32.8979 -17.508 -16.2313 25.2699 -93.9193 74.2289
2959 2 -23.2289 -53.5795 -16.302 11.9339 1.61435 -33.3411 -17.2452 -25.5121 17.9593 -90.6132 74.1722
2509 1 -23.354 -52.0216 -15.7513 -9.94733 35.1403 7.32354 -39.9945 28.0287 22.3756 -356.244 101.044
299 2 -22.3094 -50.9588 -16.47 -1.11464 -16.3699 -6.54958 30.6586 -10.9981 -26.193 -87.1819 73.6227
98 1 -20.0549 -55.3354 -17.3527 -111.733 56.1406 115.222 -3.45988 -15.4366 -35.965 -354.066 214.992
4962 2 -23.4916 -51.3954 -19.7765 -19.363 -34.7443 12.3925 19.2216 -45.9755 -38.2703 -88.5678 116.52
29949 2 -24.7823 -51.4759 -16.1787 12.5492 -35.9456 3.30851 4.96207 -16.4002 -34.403 -90.2749 80.1279
85 1 -24.8716 -52.3121 -19.9536 27.7179 31.0245 -26.3791 -1.63652 56.3169 42.9875 -357.647 134.844
5207 2 -24.4502 -53.7359 -20.6075 -13.999 21.3546 -1.22092 -3.7756 -16.5555 -20.7387 -87.6686 55.8275
34 2 -21.2212 -50.7479 -20.8713 6.4093 -47.2617 23.9081 -8.9314 -27.0826 -27.2766 -89.4945 93.7962
27833 2 -22.3485 -55.4657 -20.5941 21.4353 -25.9804 -8.04301 -23.2164 -20.6193 -72.7008 -87.2897 143.067
2986 2 -19.2301 -54.0795 -16.8743 32.2484 -17.1845 -49.6871 -11.3965 -6.93381 -4.31993 -89.057 75.4757
147 1 -15.4459 -56.1196 -18.3795 -7.32052 24.4687 -18.5883 -11.2152 33.2737 39.8296 -348.56 99.7681
7486 2 -16.1113 -56.1402 -16.8989 0.897588 -23.8683 -3.10072 -6.43277 3.22158 -16.285 -94.7257 38.4863
10169 2 -13.856 -55.7386 -18.0943 32.2989 -25.7589 3.5409 17.3775 -15.6563 -32.0376 -93.4681 85.1388
182 1 -15.8461 -56.0332 -15.3322 2.16656 48.5039 -3.54159 42.0324 -48.2266 -26.3936 -345.005 129.66
7879 2 -18.2931 -51.4732 -16.5575 -38.8348 22.8343 -7.98005 -47.8094 -28.1509 -13.5237 -84.9967 112.408
162 2 -16.7853 -53.1469 -17.6954 -24.3092 -32.9484 1.02863 -18.1041 -44.1047 -68.0307 -89.5322 147.102
4982 1 -17.992 -53.0732 -16.4956 48.1354 8.32034 18.904 87.4159 36.8798 58.8617 -358.799 196.66
2911 2 -15.9095 -54.858 -19.3034 -12.6923 9.29975 -0.819179 4.56365 -5.93542 -50.2757 -91.2555 90.0812
100 1 -16.1122 -53.3018 -19.2109 36.2298 31.5917 36.5191 2.69108 38.0051 172.871 -352.371 306.644
2650 2 -14.7169 -52.6731 -19.7393 20.5551 -39.3188 -42.1776 2.8155 1.61433 -78.1187 -92.5442 148.672
27596 2 -17.1475 -52.6043 -20.2922 -19.1736 -25.9286 -15.1094 -4.33615 2.26248 -46.7329 -90.7604 81.9344
5378 1 -13.5175 -51.6686 -20.2731 -71.8733 96.4794 36.2163 -15.3526 -25.095 99.2042 -346.972 232.271
22938 2 -17.7508 -53.5907 -14.9994 -14.1584 -43.1998 11.3525 -45.5672 18.9843 21.8433 -88.8969 104.77
7811 2 -15.0998 -54.7176 -14.8949 -8.13227 -55.3448 26.9361 -9.28814 15.0554 31.0858 -92.9275 94.6164
5119 2 -8.7211 -56.5915 -17.3296 -14.575 7.65757 3.98022 54.3266 -31.1047 33.0347 -97.9288 124.325
2813 2 -11.2827 -55.9822 -17.3178 25.8134 -25.5792 15.0038 71.1903 6.76029 -5.50024 -96.2329 132.795
10123 2 -10.3058 -56.2372 -15.065 7.36031 -26.1774 16.7042 97.6802 -30.7033 -8.0093 -97.4095 182.127
7651 2 -11.9563 -55.7222 -19.6818 -15.1932 12.0295 30.6412 29.9441 5.22991 6.13748 -92.8324 66.9264
7575 1 -7.6972 -55.8714 -18.3819 32.1307 12.7522 -42.1019 -74.3342 146.448 -78.6918 -335.642 322.401
7786 2 -12.4448 -51.4452 -19.1382 12.4236 -38.9952 1.03021 11.3907 48.2811 -27.0764 -93.6183 108.488
2510 1 -12.3345 -55.2302 -18.2704 -65.1267 17.9321 0.830494 -74.6647 -32.8271 53.7775 -347.394 185.484
29947 2 -12.0137 -53.6249 -18.0607 33.3824 2.04873 -14.0435 30.9342 39.9009 -57.1331 -93.5257 138.508
10381 1 -8.51044 -52.8949 -18.4782 -18.9057 73.5523 -78.9419 42.7255 59.453 122.621 -334.083 280.876
5221 1 -11.4321 -52.1249 -18.1987 5.4716 6.58603 -8.50967 3.36618 -93.0407 74.0397 -345.664 206.547
5106 2 -9.99022 -52.4775 -18.8768 10.163 -33.2244 30.3382 -15.6797 28.4546 -65.8867 -97.0392 139.121
7690 2 -8.4016 -54.5056 -18.8626 0.222703 -22.6673 38.6563 20.9987 -36.738 -9.38201 -99.4447 92.2864
258 2 -11.2989 -51.1417 -16.9658 -52.5115 24.0315 35.9776 -33.8705 14.5035 4.76718 -93.6353 105.151
5266 2 -8.47645 -52.797 -16.8555 -46.2859 -45.7995 49.157 -24.2677 -18.7801 -31.6002 -102.567 121.999
5211 1 -8.74307 -53.4116 -15.4233 107.34 110.451 -115.938 -20.4569 25.2747 6.15481 -329.242 232.041
114 2 -7.90941 -54.8277 -15.3158 -53.4967 -73.0677 43.7752 28.2272 -5.04757 -3.30599 -103.119 119.365
17969 2 -7.20058 -52.0405 -18.7388 -2.84779 -31.2813 53.5011 -17.4985 -71.1693 -74.0233 -100.957 195.29
12465 2 -10.2695 -53.7738 -15.201 -0.629162 -38.5015 39.0516 36.8319 -31.5526 3.0721 -98.3244 107.687
5273 2 -6.11654 -55.4834 -18.0834 -33.8553 -29.4343 45.9507 10.1788 -89.7582 17.437 -100.772 177.28
27648 2 -4.97695 -52.0635 -19.8666 -39.5409 -23.0603 29.2072 12.9151 -44.4349 -38.1668 -103.065 121.074
10274 1 -2.13901 -53.4298 -18.3675 -19.3224 87.1478 -99.7535 -10.5388 -87.2099 4.23403 -348.676 222.648
7858 2 -3.54317 -54.2473 -18.4969 10.854 -59.8271 0.0351748 -10.7712 9.31344 10.5602 -97.8901 72.7393
7707 1 -4.78071 -55.2279 -19.0022 43.404 44.589 -51.8655 12.6235 134.03 -20.1092 -333.008 254.508
12772 1 -5.65092 -51.6413 -18.4485 49.6912 64.7454 -94.2006 -35.4772 127.682 109.425 -334.831 334.22
12671 2 -5.14841 -52.4387 -17.0259 2.34597 -99.4577 90.1133 38.3869 -43.4436 -31.466 -97.8939 200.138
12611 2 -1.86943 -52.2595 -19.5066 0.74392 -5.28184 25.2243 47.6855 10.4732 -9.68868 -94.1112 90.6395
10158 2 -5.40743 -54.4293 -20.3166 -61.9023 -8.48719 50.8612 -6.28236 -69.8647 -12.3388 -103.237 157.365
12949 1 -5.04659 -52.9001 -15.4092 -52.9922 268.881 -216.5 -75.5106 -15.7101 9.73882 -343.025 448.437
10453 1 -1.61796 -50.9618 -20.4196 -59.1452 72.4142 -43.9402 -144.735 5.50812 -44.5597 -344.182 290.57
17867 2 -1.7998 -52.5916 -17.0187 -5.59075 -59.923 68.9655 37.1939 69.2868 -11.0184 -89.8235 177.42
12860 2 -5.58036 -54.3626 -15.0424 -3.68913 -95.2853 80.5517 2.73858 15.6918 -21.3401 -98.0781 159.154
15348 2 -1.00652 -54.6274 -18.4605 2.56233 -51.9699 54.8515 -42.6262 52.4015 2.43302 -90.2243 149.217
12477 2 -1.24387 -50.8724 -14.9244 -73.4588 -20.0675 57.801 65.1008 19.7456 7.89929 -87.2582 164.751
22455 1 -0.339312 -56.1068 -18.5543 18.2536 166.241 -160.131 59.3092 -91.165 27.3495 -354.75 343.293
17852 2 1.23577 -55.8053 -18.0946 7.64011 -121.006 82.5717 -7.24173 31.812 -9.85345 -86.7326 187.853
12483 1 -0.712136 -51.7291 -16.1995 116.415 20.9837 -104.824 -84.2212 -119.085 40.8033 -360.315 325.206
17571 1 2.33417 -55.7809 -16.9464 -94.5823 212.798 -70.8171 -47.1328 -64.7906 -45.8679 -362.779 336.618
20250 2 0.426491 -52.7214 -15.609 -23.9442 -38.4563 0.442699 -16.3627 59.5546 -20.646 -86.3754 117.82
17950 2 1.89195 -54.903 -15.6857 27.0428 -91.0374 -1.88855 11.1351 48.2015 39.436 -87.2817 152.877
17541 2 3.84606 -55.4178 -17.3171 73.5596 -135.237 55.6072 40.0855 2.04144 18.393 -84.5624 214.518
14997 2 -0.103009 -50.8907 -20.951 39.2888 -59.7708 16.9223 31.4893 -40.353 69.6274 -92.2945 174.646
7781 2 0.0310261 -50.6111 -17.1787 -68.8103 4.34449 37.0933 78.1338 50.3003 -39.0006 -86.978 198.212
25067 2 5.61256 -54.2979 -15.8472 -7.93257 -92.5677 60.4158 13.3365 -13.5269 10.5713 -90.5393 137.975
15073 1 5.45171 -55.2673 -17.1205 -25.3906 223.808 -186.026 -78.6739 13.8639 -31.4026 -358.351 387.347
20411 2 6.21514 -51.7384 -15.8523 -60.157 28.0968 1.18125 26.8581 -56.1537 -63.2281 -88.7855 172.496
19962 2 6.33688 -54.4688 -18.2602 -44.4911 -98.5769 123.752 37.7161 -1.07548 -9.79371 -88.6283 211.871
20074 2 8.73682 -54.6731 -19.512 -44.8336 -77.8398 78.269 23.6597 11.9562 1.7797 -93.3461 149.748
15441 2 9.64938 -54.6257 -16.0206 -44.0245 -108.212 44.0493 88.4891 -67.0423 -0.506672 -92.2221 233.465
15184 1 7.15106 -54.3763 -19.6407 105.73 131.637 -200.712 -39.247 -61.9291 60.2161 -351.603 359.891
15246 2 10.1151 -52.1603 -17.5162 -23.1177 9.46568 -17.5757 28.858 -19.0603 -9.60924 -90.1035 69.1163
24866 1 10.2423 -55.2524 -19.4083 4.68337 150.834 -103.373 -38.946 59.8915 -48.1273 -351.337 266.625
17682 2 7.04759 -52.9747 -20.4312 -54.808 -11.9916 44.7872 0.158 79.1019 -11.5239 -91.1349 163.273
12646 2 6.461 -55.5415 -20.4413 -2.22446 -98.5747 66.949 38.9909 50.4546 -48.2565 -92.5757 199.793
24784 1 10.6552 -53.5925 -16.8407 -9.07599 118.498 -5.9993 -150.741 55.7838 -10.1099 -356.01 306.11
17593 1 9.09136 -55.7266 -14.9627 154.036 176.691 -127.375 -98.7158 128.318 3.36985 -347.797 405.889
17679 1 6.05329 -53.0364 -14.9172 95.9781 21.7516 -39.1365 -13.5445 91.8505 76.3799 -350.224 238.952
15253 1 10.029 -50.6422 -18.125 -1.99978 43.3729 46.7808 -13.8617 36.3682 22.3208 -352.931 90.9062
17388 2 7.61673 -56.3354 -14.699 -120.3 -65.8422 74.5731 36.6843 -55.5144 -3.33974 -96.4818 208.914
12581 2 10.8975 -54.5435 -18.1234 7.06281 -75.0783 31.3642 57.7275 -35.7372 43.9913 -89.0144 170.201
27586 2 15.814 -56.31 -16.8059 -7.83124 8.63992 -58.2363 3.7355 34.5576 18.6306 -80.9481 91.1484
17987 2 11.9179 -53.2616 -15.8702 67.6015 -110.288 -21.3182 80.021 3.45034 -3.40249 -86.318 207.398
17596 1 15.1327 -53.7444 -19.6371 -59.9088 96.5812 25.5607 -91.8242 -57.3351 -0.794908 -358.372 231.469
17771 2 15.2396 -54.1105 -18.024 25.3489 -58.7264 -6.02213 20.7823 20.9491 21.2426 -86.1533 96.8572
17560 1 15.4885 -54.7535 -16.5532 -48.0465 105.405 41.5826 1.01242 -29.3118 -72.0822 -368.119 189.724
17289 2 14.61 -52.1808 -19.9964 4.20258 -44.2187 -5.72926 51.971 -0.765488 10.3645 -89.5542 101.928
15402 2 14.3277 -54.1812 -15.5823 60.3205 -106.245 -21.745 22.7537 -5.96828 18.7625 -82.6835 153.381
19764 2 14.062 -54.7555 -20.3511 48.1275 -38.7806 -27.6226 68.6946 44.6372 17.094 -87.8854 166.489
19915 2 16.6615 -53.967 -20.0207 6.09535 -37.5149 -26.242 27.9949 34.0199 -28.7787 -89.4304 99.2228
12662 1 13.2362 -53.1157 -14.8996 -155.539 234.484 47.5685 -142.02 -16.0838 13.7743 -366.106 419.533
17592 2 11.3618 -55.0589 -20.5177 37.8111 -74.5243 17.4291 38.5469 -23.4452 20.473 -91.4502 134.57
15157 1 14.7295 -50.6636 -20.494 -68.5859 123.283 -24.453 -39.0526 -8.33654 -33.6963 -353.663 196.172
17657 2 13.8273 -51.5617 -14.8294 36.3963 -52.8239 -34.4226 54.2247 7.73941 13.0714 -86.6658 127.163
12510 2 16.9187 -54.2671 -15.7566 1.99309 -60.1387 -9.65806 -23.8168 32.0965 13.1933 -86.0689 92.6643
25062 2 18.5406 -56.0028 -20.0148 -49.0367 8.86637 -17.9917 15.0259 30.5492 -17.261 -86.1843 83.0053
89 2 20.4303 -55.9471 -16.3932 -75.7414 -3.80726 15.9057 -25.6009 48.7315 -18.3082 -88.795 130.68
17362 2 19.3072 -53.6053 -16.2555 -52.6022 -24.1772 29.307 -31.8068 39.7793 -9.70047 -91.2646 115.123
27103 2 20.8059 -51.511 -19.4128 -39.6735 0.590111 35.755 -22.3 5.13559 1.71009 -91.5198 76.5073
17572 1 20.8486 -53.1373 -19.4843 46.0116 73.5088 -64.503 69.1524 3.06047 24.1953 -354.833 179.273
27667 2 19.3526 -53.5804 -19.8822 -32.8861 -31.7618 35.3112 2.97214 24.5514 -21.0072 -90.7149 87.9441
22861 1 20.6391 -54.3864 -16.6242 140.486 21.6268 -91.456 50.8241 -72.5212 28.4835 -354.532 257.522
25037 2 20.9678 -53.9341 -18.1124 -57.737 -28.6305 20.4572 -31.8992 12.8892 -22.762 -89.4781 98.9492
24872 2 21.8018 -53.9932 -15.5962 -54.8949 -12.2315 46.5167 -28.7907 43.1705 -9.05079 -89.7939 126.892
22742 1 18.1222 -53.4524 -15.162 24.167 85.3523 -32.3423 60.7285 -78.2306 27.9197 -355.638 205.322
24950 1 18.1873 -54.4863 -20.4761 27.0229 47.5791 -19.2265 -35.9352 -47.1197 67.7524 -356.833 166.788
25160 2 22.0564 -53.6494 -20.416 30.875 -91.8917 27.4856 -52.3892 -13.4636 -19.7916 -88.7195 156.907
17842 2 17.7538 -51.8842 -14.9674 -7.62598 -21.375 10.7572 -19.5802 17.6565 -42.0605 -91.1147 90.4014
22563 1 25.0466 -56.5748 -19.3132 60.325 42.7192 24.365 65.5214 63.1187 37.9662 -363.019 173.567
25054 2 26.1032 -55.7119 -18.3968 -13.9801 -52.2184 7.54387 -11.2871 19.9074 -15.3163 -86.9526 70.8757
22841 2 24.1062 -55.4571 -20.0343 -15.1046 -52.068 -19.8977 -48.2995 -7.13783 -23.7144 -87.8544 100.253
27544 1 25.9177 -52.1009 -19.9321 43.7858 -12.5293 30.674 91.4341 -91.1622 -86.8662 -355.427 274.325
29944 1 26.8664 -54.3425 -17.9657 12.8888 107.344 -46.0317 11.7991 -107.659 -0.328687 -357.336 230.538
22581 2 26.4332 -52.9967 -18.6813 -10.6785 -24.5054 -10.5215 -25.186 55.1856 26.3191 -89.9007 115.373
7414 2 26.8978 -54.1881 -16.4066 -0.44037 -59.0388 30.1064 0.768281 7.20344 -17.6503 -87.6882 85.1405
27574 2 24.491 -52.7364 -20.1896 12.5335 -27.0279 -29.8891 -39.0956 30.5553 20.4973 -89.2719 101.652
22666 2 28.4562 -54.3619 -18.4852 -45.3605 -39.1909 24.6332 -27.4746 57.0917 18.6835 -90.4186 132.648
20440 1 23.5703 -54.0218 -20.7135 -37.1852 173.267 -15.8312 121.116 -18.6517 35.0543 -356.042 298.311
20449 1 27.5732 -54.1227 -14.8925 -10.4642 110.653 -85.745 2.58944 95.5034 38.6648 -356.142 247.633
27563 2 26.0528 -50.5368 -19.6036 -54.2646 43.3667 -8.07369 -92.7205 51.938 57.4905 -90.0505 225.732
7495 2 23.8877 -50.5141 -15.6495 23.1782 -19.4146 -0.787376 5.45751 -16.564 -47.7277 -90.5203 95.4672
29875 2 27.828 -52.4839 -14.6889 -5.62701 -14.7671 30.1689 -28.7019 -27.3639 -32.1468 -90.3373 97.5196
25162 2 29.0243 -54.8006 -14.8989 -16.1083 -34.952 26.63 -15.5461 -23.5939 -8.47864 -90.9022 74.8179
115 2 29.1261 -50.6115 -15.9514 -21.9422 -3.49655 -28.2179 -75.678 -2.86608 9.28665 -93.2854 134.016
2774 1 34.5165 -56.5521 -17.8805 71.651 -0.165256 39.8516 57.9498 -41.596 -86.5992 -343.768 204.08