ITEM: TIMESTEP
80000
ITEM: NUMBER OF ATOMS
29952
ITEM: BOX BOUNDS pp pp pp
-2.5137656184913688e+01 3.5122950527621192e+01
-6.2808520747541550e+01 7.2793815089541553e+01
-2.1027784689789229e+01 3.4895637835931232e+01
ITEM: ATOMS id type x y z v_StrAtomXX v_StrAtomYY v_StrAtomZZ v_StrAtomXY v_StrAtomXZ v_StrAtomYZ c_PEAtom v_VMS
25058 1 -21.5625 -61.2385 -15.9341 39.7152 -16.0196 32.0607 48.5148 40.7644 -94.571 -344.598 203.999
7576 1 -24.0989 -57.5865 -19.7793 64.6768 -24.2839 -41.4255 68.8581 48.1438 -98.723 -345.371 245.253
190 2 -20.8744 -57.7846 -17.5283 -16.2415 7.93219 -1.20634 -11.1916 -40.5469 15.5845 -91.7972 80.5202
5142 2 -22.8878 -61.2734 -16.857 -76.4629 12.885 17.2121 -30.7848 -21.7446 38.2473 -97.2676 130.532
29779 2 -20.6719 -59.8451 -16.1041 -6.49133 33.3823 1.20138 9.68515 -35.8634 4.93817 -90.8315 74.5349
2392 1 -23.9972 -60.7104 -20.1991 202.02 -54.8759 -171.456 115.604 49.6009 -60.4745 -349.924 409.854
2581 1 -24.469 -61.4529 -17.2904 123.925 -45.587 -36.0639 75.1284 36.9668 -70.6349 -341.927 251.418
86 1 -19.7699 -58.6084 -16.6958 15.9506 -17.5695 -5.70484 -6.45136 50.65 -19.5803 -356.35 99.1864
29664 2 -23.7081 -59.1223 -20.0154 -64.7622 41.2057 46.4928 -44.6469 -22.4724 46.8231 -92.9538 160.903
24666 2 -24.6438 -61.1951 -18.8639 -77.6718 30.4681 74.0222 -47.7792 -37.0326 11.0473 -92.7028 172.134
5291 2 -23.1859 -57.0491 -18.6072 -1.67431 -14.0235 14.6019 -22.0287 -13.034 37.8053 -94.3866 82.895
29864 2 -22.7934 -61.6868 -20.52 -66.3847 10.322 70.9843 -45.5511 -32.3135 18.0234 -93.0181 156.68
22547 2 -19.4428 -60.1383 -20.1774 -87.4284 42.765 20.035 -18.9005 -20.1631 51.6978 -92.0645 157.534
2576 2 -20.6305 -62.5179 -16.417 6.42058 -23.844 -1.97747 -44.0797 -25.7385 65.3442 -93.192 146.145
249 2 -25.177 -60.3161 -16.4552 -26.0617 37.6307 -11.299 -48.2899 0.55697 22.2741 -97.1314 108.717
27573 2 -18.7815 -59.2887 -17.7635 -47.6553 16.3272 24.9271 -16.2283 -9.81963 29.8777 -88.6286 92.0616
7464 2 -18.6276 -57.6565 -15.9412 5.11726 0.870462 8.97064 14.6773 21.5329 23.3655 -87.8027 61.0276
27651 1 -18.2338 -59.7008 -19.1758 180.466 -78.1615 -66.5872 43.9206 -16.0989 -93.3389 -355.525 311.014
275 2 -17.213 -60.932 -19.1776 -70.2691 64.6513 24.3039 -45.2592 48.6828 49.9828 -88.2611 187.451
5068 1 -17.0748 -57.163 -16.0092 56.4824 -35.6108 -24.8567 7.46982 -40.3309 -35.2692 -358.628 128.005
4986 2 -16.0974 -58.4212 -16.1108 -23.4058 23.3702 3.96461 -29.5816 24.8824 -0.805714 -87.1607 78.3672
27644 2 -17.5883 -58.3196 -19.8577 -58.737 5.5316 12.6118 25.4439 11.6889 62.3542 -89.9633 136.572
7381 1 -15.2398 -59.7159 -15.5736 85.7217 -39.7009 -9.00221 33.1686 -14.6768 -30.1175 -358.841 139.61
2669 2 -16.1366 -61.0528 -15.7836 -25.7115 -2.2395 12.7458 -3.83833 18.3412 37.2938 -87.9134 79.7064
27563 2 -13.8498 -59.9022 -16.4315 -44.3204 35.0338 -33.0136 -3.37112 -1.56603 12.7611 -88.6572 77.8311
2966 1 -13.6596 -57.5782 -19.5951 139.452 21.7181 -22.3098 21.1733 -100.175 -21.8215 -360.357 232.081
4887 1 -16.8523 -62.5443 -19.1662 79.6467 6.59591 -120.725 64.3701 -61.091 -158.291 -352.394 360.059
7432 1 -16.0962 -62.6054 -16.0011 5.26554 118.985 -87.9823 13.1428 -38.1283 -100.184 -357.012 259.272
309 2 -13.2728 -58.8255 -18.6371 -67.0331 26.6186 -21.5093 -19.5265 55.0716 1.95268 -86.3081 129.744
4904 2 -15.7516 -62.8268 -20.3376 -19.1711 -10.6236 44.2685 -27.6962 39.9162 75.3493 -92.7356 166.34
5172 2 -14.4137 -57.9843 -21.0328 -61.3747 -5.66566 36.1827 23.6967 28.8564 60.783 -85.6267 149.842
2671 2 -16.3271 72.846 -17.6282 -16.7644 -58.6563 66.6424 -4.08627 40.3474 83.0694 -89.3783 194.528
5104 1 -12.7192 -59.1977 -17.2017 94.2667 -86.8241 121.681 6.64589 -32.2971 2.26115 -357.773 204.419
7820 2 -12.4675 -57.7158 -16.4455 -32.3457 -12.6871 -25.521 -4.61246 29.7304 8.00677 -89.2997 56.6279
7506 2 -9.0287 -59.9297 -18.5376 -16.2637 18.8427 -81.6957 -20.5683 4.80908 31.6352 -79.9524 110.235
10192 1 -10.1623 -60.893 -17.8681 28.254 -64.6242 199.165 30.9567 -47.577 -92.1127 -365.971 298.045
19 2 -11.2894 -59.9037 -17.2978 -37.9484 42.3909 -103.525 -9.73352 20.574 21.5752 -87.4261 137.745
12390 2 -9.40348 -61.9738 -16.8785 23.4405 -3.91774 -94.464 -37.2809 27.7413 41.7545 -85.327 152.095
7582 2 -8.51467 -58.4573 -16.4705 -0.227332 -6.28577 -100.466 -6.28553 3.85027 38.2661 -83.2649 118.461
2403 1 -8.02619 -58.8462 -17.9893 -8.05493 -5.52693 227.765 25.7295 -7.74936 -24.7208 -375.016 242.942
7481 2 -10.9345 -61.9458 -18.8004 -54.3729 1.26883 -31.5071 -6.95258 50.8089 75.3178 -84.5071 165.089
12389 2 -8.05909 -57.4533 -18.8375 -21.3714 -28.8856 -73.3046 14.7167 5.8912 -16.1566 -78.4118 62.452
17269 1 -8.99934 -57.6799 -15.1783 34.4501 16.0912 70.0561 -25.3419 -34.4237 -73.6455 -365.06 154.955
12298 2 -12.5172 -62.5785 -16.9492 -38.012 -32.4802 -16.2289 -24.8801 17.2931 63.1167 -89.9017 122.841
5467 2 -10.2179 -56.6764 -15.6379 -20.906 -45.5849 -31.873 22.4187 29.2967 36.5639 -87.3545 92.4776
12192 2 -12.3306 -56.8252 -19.8928 -60.6803 -41.7059 16.2386 -9.35192 34.3706 -11.0206 -85.8998 94.804
7473 2 -6.60828 -59.5649 -17.7844 16.7279 18.0327 -150.477 -32.7889 2.08902 19.3641 -77.6552 180.39
5388 2 -5.21954 -60.9986 -15.9359 0.29472 -14.2406 -73.9056 -2.03541 0.122416 19.7097 -79.2969 76.2649
25250 1 -5.07693 -60.1595 -17.3587 -12.2685 -43.0928 301.098 30.555 14.5836 -72.1746 -381.064 357.595
10234 2 -4.235 -58.7664 -17.3782 13.6686 27.8501 -177.407 17.6594 29.1916 39.5975 -74.4313 218.212
10079 2 -4.43394 -61.3936 -18.2411 -0.538541 -19.8659 -103.139 -22.1836 -39.5321 76.7855 -77.6533 181.025
15051 1 -3.64467 -57.3388 -17.7322 -37.5093 1.02789 256.87 -20.1934 -67.2489 -32.7805 -386.985 307.918
9883 2 -2.03417 -57.664 -17.6754 6.59795 -13.3399 -112.356 -6.67212 29.7835 39.6468 -73.7297 140.307
4830 2 -2.6183 -61.9661 -20.0301 37.9161 -63.3447 -69.2176 27.2544 -53.2639 47.7754 -77.6221 168.73
10070 1 -1.26034 -61.8936 -20.8602 -12.5649 104.037 90.4716 -108.727 42.8125 -36.9052 -374.715 239.265
9940 1 -5.78572 -62.3479 -15.214 -10.8984 152.266 86.024 38.7005 -10.8157 -88.3896 -368.196 220.192
10189 1 -3.81418 -62.6011 -19.1052 -40.0323 137.844 129.094 15.6022 86.3126 -161.085 -374.753 362.057
29770 2 -6.98329 -62.832 -16.2091 24.8023 -60.5207 -64.0069 -25.4001 5.94712 47.2903 -84.6316 127.829
15066 2 -1.3895 -58.093 -15.3524 -28.8605 -16.2013 -93.5393 12.5941 15.3039 21.6573 -80.4062 88.0225
7599 1 -0.722315 -57.6288 -16.7933 20.6218 32.5665 183.167 34.5073 28.3249 -128.878 -378.799 283.602
22353 2 -0.0498858 -61.8369 -19.8313 -10.5165 -48.4539 -64.9996 53.2992 -8.93455 53.9277 -82.4286 140.809
7414 2 1.06987 -61.0934 -17.5239 -31.1006 -35.6397 -50.9386 43.2049 -23.523 87.8019 -79.2734 175.247
7586 1 1.58975 -59.5489 -17.6657 68.7495 53.2203 127.791 -15.563 60.7456 -200.565 -375.692 370.297
12678 2 3.12887 -59.2382 -17.1004 -6.93126 -17.9393 -73.7253 -8.05754 -10.6605 75.8871 -79.7093 147.172
9882 2 0.513149 -58.5451 -17.1584 -27.5408 -21.9657 -77.0058 -14.795 -56.2107 104.562 -78.2329 213.749
19749 2 1.54756 -59.397 -19.3202 -67.3141 -30.4087 -59.8297 33.5969 5.84146 79.6388 -79.3688 153.81
22456 1 0.917486 -62.2549 -18.6105 -9.44468 76.5502 135.872 -78.3258 7.37979 -125.243 -370.126 285.73
17367 1 4.25353 -57.3481 -20.3048 81.9311 -87.3924 182.692 -57.4342 4.74912 -56.1958 -382.98 274.449
27343 2 4.26129 -57.564 -18.6522 -39.2182 36.2939 -99.5959 28.7939 -8.07779 32.5472 -78.0118 140.598
22573 1 4.55164 -58.4351 -17.2683 18.7129 -57.1128 172.923 -1.99385 1.56434 -117.583 -376.746 287.611
12568 1 1.68467 -59.1348 -20.8971 157.901 31.7297 62.6218 -87.5322 -79.5221 -85.809 -379.521 277.529
12369 2 4.87741 -62.4863 -19.6345 44.685 -65.8278 -68.6786 1.73791 13.2814 47.1095 -85.18 140.472
9967 2 4.65107 -57.4493 -15.9731 -3.07844 30.5982 -80.0947 12.1275 -2.60566 52.8563 -79.2515 136.023
9814 2 2.36167 -62.6846 -19.1765 40.2749 -47.2195 -85.9918 3.34095 33.6934 64.6741 -84.4761 168.933
12130 2 3.04668 -58.1938 -21.0033 -56.3643 14.3754 -65.9505 44.9581 29.8453 40.1771 -75.6134 139.114
24682 2 5.83259 -59.3482 -17.3 -12.7208 13.7192 -96.1201 -33.0172 -2.93579 43.6511 -79.9826 137.376
22259 2 6.19115 -61.7345 -16.2195 -25.0002 -29.349 -57.101 -12.0288 7.17265 54.6121 -83.9254 102.204
17474 1 6.81385 -60.68 -17.2728 3.63946 -7.83692 153.918 -18.0876 -0.687929 -95.5749 -368.842 229.84
12675 1 9.52877 -59.2837 -20.0937 17.7055 -29.0083 107.287 -36.2312 54.3611 -11.3773 -370.999 166.083
4892 2 6.88486 -61.3056 -18.7469 2.16856 -7.31245 -67.1237 13.6599 -19.6119 38.6837 -84.3931 102.163
12282 2 8.38124 -60.631 -16.8547 3.51155 -0.992735 -52.1982 16.7876 3.7079 46.0439 -83.3306 100.597
17475 1 9.59273 -59.5519 -16.9336 49.465 -2.09975 83.1586 27.3676 39.0795 -79.6873 -369.379 177.23
19689 2 8.97162 -58.5177 -15.811 -68.0853 46.0478 -48.6973 -25.2268 -26.9727 60.365 -81.411 161.904
22449 2 9.57167 -59.1647 -18.4821 -25.6677 3.40867 -39.8944 4.05745 -31.5429 21.8512 -81.8721 76.9946
19661 2 10.0988 -60.7383 -20.4141 -16.2524 -13.6519 -60.5694 58.5572 1.94094 -7.84919 -84.8973 112.111
15050 1 6.44255 -62.3301 -19.8922 -37.6639 90.8197 47.0014 -22.8195 29.6055 -45.2988 -363.138 152.137
12689 2 8.07137 -58.8439 -20.6853 -14.0144 14.3695 -64.8825 6.90954 -16.5117 19.7695 -79.1516 83.4906
17559 1 5.42746 -62.5301 -15.0335 47.0113 114.474 8.28274 61.8765 38.1467 -93.7243 -371.683 225.54
12656 2 10.4781 -58.2446 -20.8268 -14.7901 7.25282 -56.3247 21.1167 -52.1435 -3.21227 -82.5955 112.482
19975 2 5.67582 -57.853 -20.6596 -2.4928 23.1447 -90.8054 5.56715 -26.7235 38.83 -75.91 132.209
17699 2 11.2106 -59.649 -16.5621 -25.9942 -0.858383 -48.4528 -33.7737 -29.6817 14.0798 -84.029 91.4354
27453 2 13.4237 -58.947 -17.8323 -52.6096 13.1938 -4.63146 2.9405 -34.9498 -30.5716 -84.1329 99.8456
15400 1 12.811 -60.0799 -16.7793 67.0699 6.56958 62.6267 19.1277 13.8177 60.6255 -362.858 126.917
15275 2 12.5335 -61.5956 -17.3573 -26.8362 -32.7336 -7.79286 26.0792 13.4998 -13.753 -88.8024 60.5334
22550 1 13.5516 -57.6624 -18.7562 117.347 -53.6554 -2.681 12.6214 97.9607 -38.0063 -366.994 238.167
12478 2 12.8679 -57.9751 -20.1623 -34.7325 -5.65457 -23.8137 -10.4821 -43.0836 17.5031 -87.0981 86.3976
15370 2 13.8592 -60.2156 -15.5804 -31.5823 -31.7786 -28.8028 -0.821434 20.6521 -12.2983 -85.8862 41.7565
19680 2 15.3573 -61.9262 -19.7981 0.967289 -32.602 16.4996 7.72126 4.23385 -30.0418 -90.3039 69.4961
17460 2 16.4737 -60.777 -15.6441 14.3059 -68.1543 18.4141 41.1388 -13.3303 7.51918 -87.9535 113.733
20075 2 15.0086 -57.0234 -18.9974 -21.6322 12.8081 -18.3062 -1.29352 -22.9531 57.1736 -84.5151 111.69
14888 2 12.5917 -61.4065 -20.4582 10.2839 -3.42894 -25.4745 65.0815 -36.0038 -28.3064 -88.0205 141.336
19930 2 16.3981 -57.9852 -20.7766 -13.6586 5.66962 -40.1407 33.7415 40.922 23.7662 -93.5126 108.261
24758 1 14.2147 -61.4476 -20.8629 21.6913 10.5178 28.5964 -73.2714 53.7989 66.4142 -353.61 195.631
24843 1 16.9226 -61.9063 -19.611 16.0885 46.7457 -39.2378 -5.91856 -41.8908 53.9236 -349.683 140.676
22465 1 16.3315 -56.6834 -19.8005 -2.05158 -48.5592 60.1785 -32.7139 -63.1134 -86.1378 -357.876 215.289
22575 1 11.0859 -61.9161 -20.8265 -4.44051 -15.2398 67.0675 -136.586 8.14662 10.8378 -360.939 250.041
102 2 17.2219 -61.331 -18.1791 -21.1498 -38.9702 35.0677 25.2613 7.67039 -17.4409 -91.6999 86.5057
10358 1 17.7714 -61.1107 -16.6497 -18.5382 90.2912 -45.7398 -105.648 4.67711 -5.69422 -353.004 221.792
27362 1 19.989 -58.6372 -16.5989 246.937 -206.149 -9.7648 -70.7015 -57.9722 -9.65835 -348.291 424.539
22661 2 21.3599 -59.4995 -16.3765 -84.9466 83.9969 3.10618 1.07518 30.6542 -10.68 -95.5335 156.793
9996 2 18.8104 -59.7959 -16.6374 -46.3383 24.7592 11.6338 55.5674 23.7562 -1.22353 -91.1673 123.51
17662 2 19.752 -57.6189 -17.8109 -137.87 78.9962 12.4394 36.5977 63.6091 37.5888 -94.1715 239.629
24960 2 22.2343 -61.9346 -16.3185 -36.094 -32.5748 53.5937 9.3143 17.3769 22.2591 -99.0312 101.947
27392 2 22.4533 -60.9051 -20.0048 -37.1146 42.5585 9.95303 -2.10408 55.1844 14.3536 -96.3143 120.75
17884 1 21.6579 -60.774 -15.3961 114.25 -12.6175 -50.2474 -6.51331 -43.6533 5.77599 -339.201 168.016
15147 1 21.4692 -62.2127 -19.9834 104.68 -53.8678 -46.7344 12.7769 -92.843 -62.5089 -339.139 249.256
15180 2 19.1891 -57.5316 -20.2413 -79.2536 38.304 -1.75694 -3.74273 93.4023 47.5215 -95.2457 209.055
20057 2 20.079 -61.7011 -20.5253 -50.5166 35.0422 0.106745 -1.16058 33.4875 5.92075 -97.3306 95.0011
17576 2 17.5699 -61.029 -20.8494 1.02615 2.74626 -7.2472 3.24927 46.0588 -29.59 -94.6072 95.4372
12377 2 18.391 -62.6094 -16.2744 -6.27555 -43.8572 31.9252 58.0554 3.46445 8.63076 -92.3946 121.153
25065 2 19.9694 -57.5755 -15.3755 -136.028 139.592 -6.22447 26.5382 -12.9024 24.5606 -91.2676 247.913
27367 2 21.5684 -58.5042 -20.6235 -65.2964 26.5259 16.1041 -1.3523 49.4744 51.2158 -95.0345 150.999
12602 1 22.8747 -59.3994 -20.335 36.9626 -52.1569 -12.1816 -33.8171 -101.392 -55.4391 -346.549 222.418
22468 1 19.1491 -56.6531 -18.9329 161.911 -88.6594 -17.7414 -37.5461 -199.272 -116.384 -347.773 462.641
2311 2 23.7036 -58.6864 -19.1842 -2.96419 45.3533 -18.9598 12.2981 32.3344 38.1312 -93.8719 106.375
17544 2 25.1453 -58.7146 -17.034 -58.3774 74.0718 -12.5526 -18.457 -0.82919 -3.91601 -94.698 121.009
22552 1 24.3806 -57.7225 -18.0423 45.5041 -171.499 78.4641 40.6846 -1.89092 -70.3617 -347.126 274.149
27642 2 27.726 -58.1064 -19.2883 -27.9604 57.8962 -73.2187 -6.28024 -41.0909 -30.6945 -93.0384 145.998
29876 2 25.492 -61.3045 -16.309 -30.7598 -11.7718 30.7725 9.97819 -19.4196 32.1938 -99.1639 86.7051
17586 2 27.796 -60.8243 -19.8229 -37.5126 51.2909 -46.5816 23.4696 -18.9223 29.8917 -94.5849 119.083
29877 2 27.426 -59.913 -17.4424 -21.3933 31.4043 -5.43118 -8.09337 -22.7353 5.07272 -95.6167 63.435
24589 1 26.1532 -59.8219 -16.4154 120.868 -70.4745 -54.7422 5.82301 30.777 -25.671 -341.8 196.9
27661 1 28.1752 -59.5613 -18.8142 3.78527 -83.5807 101.586 -3.58233 40.7121 27.592 -346.236 181.761
2487 1 27.2958 -62.2551 -20.2375 84.4527 -17.0673 18.8646 -39.4005 8.52625 -126.739 -342.942 247.008
27541 1 26.7972 -56.9275 -19.7904 109.594 -151.467 48.1853 -30.1227 65.1385 -4.04291 -348.846 267.195
12690 2 25.4982 -56.9429 -18.8887 -44.0627 84.8493 -41.0233 3.0522 -42.1361 29.8988 -93.1318 155.794
25074 2 25.7685 -62.6023 -19.6625 -5.73363 -22.1668 -26.5051 -0.298406 8.77701 79.9109 -97.9337 140.53
24864 2 23.5334 -56.6013 -17.264 -42.9496 118.105 -80.3902 -19.5441 4.39301 48.3928 -94.9727 203.96
19963 2 26.7747 -59.3356 -15.014 -66.9051 45.0898 30.5144 8.72862 3.91935 51.6078 -94.8915 139.24
2 1 -25.2532 -59.6645 -14.96 41.7743 -72.6802 61.2365 88.4699 -24.499 -52.1669 -338.493 221.702
284 2 34.5432 -57.6072 -19.3465 -42.5668 -33.1909 16.7243 -44.9337 -27.9964 29 -96.8971 118.233
24834 2 29.7797 -59.4087 -18.7602 17.823 26.7752 -41.6147 38.1623 4.41724 -18.7394 -93.1542 98.1132
27434 1 31.3544 -59.6273 -19.2592 38.6793 -57.934 13.0493 -108.917 10.2165 33.2852 -349.812 216.196
27360 2 31.6032 -61.1815 -18.8707 -12.54 40.504 -5.95007 31.7363 -7.06909 5.62654 -91.5398 75.9868
29844 2 31.8361 -61.1062 -16.3511 -18.9667 39.1811 -49.7837 38.0215 24.8126 20.9032 -95.3305 116.694
25162 2 32.3779 -58.6408 -18.4336 -38.375 37.1142 13.2284 41.372 4.52158 -8.54222 -94.7781 99.4043
22115 2 31.1772 -58.4682 -15.5307 -41.8742 66.1726 -23.7634 15.016 -12.3484 46.6441 -93.778 133.065
2594 1 33.3105 -57.3259 -18.412 127.802 -58.5775 -49.0325 -2.49572 10.6051 -35.4404 -339.308 192.805
27361 1 31.3596 -62.1362 -17.6152 8.86833 -56.2929 48.9813 -30.7125 -13.7566 -37.5834 -345.412 126.901
2565 2 33.9718 -56.7646 -16.9773 -70.0886 42.7134 27.7511 -18.4529 -16.3235 12.2891 -98.9452 116.337
24973 1 31.9307 -59.8552 -15.2604 30.3153 -126.002 62.1549 -66.2967 21.1677 -70.3509 -344.977 244.548
25218 2 31.586 -59.1974 -20.785 -35.01 3.36819 15.4822 21.6922 -31.3193 39.7453 -91.6004 105.726
4903 2 33.4159 -59.5181 -14.7622 5.15581 44.0002 -35.0014 -12.7 -0.957025 21.5824 -96.1664 81.0271
29786 1 31.1673 -56.9936 -14.8298 32.3777 -130.354 56.799 26.2573 89.995 -54.8774 -345.228 257.784
7574 1 -21.7472 -56.5493 -18.135 17.7027 3.84356 -2.05917 20.7454 60.8375 -60.5983 -348.686 154.013
29756 2 -21.0649 -55.9357 -19.4233 -25.3286 3.72076 9.70005 -3.12648 -38.1835 29.9502 -91.4555 90.2642
25173 2 -21.6912 -55.382 -17.0076 -14.4183 10.3153 -18.7708 11.1199 -18.5001 26.2076 -93.2573 64.7811
267 1 -21.8844 -54.8207 -15.533 -16.5756 3.11699 5.94135 -74.6775 3.49028 -14.3815 -349.947 133.561
2849 2 -21.6844 -52.4981 -18.1982 -8.90455 21.2375 -21.5772 41.1458 -8.43148 -2.09708 -90.3135 82.1979
8149 1 -22.807 -52.3164 -17.0427 -58.4546 -75.8038 113.948 -70.2911 -5.07358 -10.1444 -352.641 219.598
5147 2 -22.5741 -53.3773 -15.8625 -15.4587 10.5227 -25.0031 32.4771 2.42743 -2.95466 -91.7644 64.9789
22660 1 -20.131 -52.401 -18.6375 76.2543 -62.4397 -25.4454 -39.7743 -7.47582 -30.6567 -355.878 152.338
5565 2 -22.6082 -50.7479 -16.6036 0.368994 79.5914 -59.4464 29.9172 -0.941732 38.0473 -89.4258 147.049
2676 2 -19.8108 -53.6501 -19.5464 -51.958 27.7385 33.3588 12.4576 -4.64288 20.1159 -88.8881 92.6025
142 2 -19.8486 -50.9453 -19.2396 -70.8323 46.5426 28.5558 17.7136 11.6264 16.8572 -88.8275 119.116
27572 2 -24.3111 -52.5564 -17.4382 22.3889 20.0737 -42.1743 20.5164 -1.99227 -4.01659 -94.0611 73.1257
7468 1 -19.9972 -55.1022 -20.3846 119.759 -76.1281 -50.6926 -10.1109 35.4347 -15.7087 -356.195 197.104
27658 2 -19.2006 -52.4196 -17.2731 -14.3249 23.5123 -23.3943 12.7978 17.8851 19.0535 -91.2932 66.3111
2686 2 -22.5809 -56.0812 -14.8802 -14.8326 11.3131 17.9658 4.29674 -14.7272 3.0067 -93.9564 40.4349
27569 2 -14.5876 -56.5415 -18.7331 -39.7018 -18.1913 -27.9975 -22.0793 16.9252 3.81746 -90.2403 52.0915
7308 2 -16.7671 -56.2798 -17.2959 -31.0338 15.6842 -3.16381 18.5966 -4.76942 26.4879 -89.7829 69.77
5281 1 -18.434 -51.7031 -15.9996 88.1993 -94.3451 51.5654 7.51507 -23.9219 -19.7797 -349.838 176.174
29941 1 -15.7044 -55.4826 -18.2484 98.5206 -25.1683 42.187 17.8465 28.3943 -58.003 -352.127 158.025
22089 2 -16.2518 -54.7785 -19.7085 -44.0759 6.49055 -10.4669 7.05275 13.9407 39.2302 -89.9883 85.6523
5088 2 -16.896 -52.0863 -16.1986 -45.3557 19.1057 -14.2856 -15.7848 -12.1879 19.6977 -92.8036 73.9927
27635 2 -15.1913 -54.1565 -17.4593 -70.1245 -1.54242 -10.1916 -20.8814 -20.1376 32.5389 -92.0488 99.4291
5188 1 -15.7576 -52.5152 -17.3042 134.529 -9.41849 28.1836 1.68989 52.4042 -84.4695 -350.312 215.347
14861 2 -16.3836 -52.4699 -18.7643 -56.6577 2.28583 -54.6626 -18.9708 -15.3188 25.1337 -90.4234 83.9018
4884 2 -14.4968 -51.4755 -17.2288 -64.8304 25.7215 -33.7299 34.2051 -16.2457 32.4608 -89.4571 117.531
2870 1 -16.0141 -53.2602 -20.1551 112.066 47.9353 -48.6311 33.5667 -39.3399 -19.4655 -357.974 169.678
7769 2 -14.4169 -53.0037 -20.3922 -68.6216 -26.0821 3.34936 -4.41523 -19.5166 19.8752 -87.169 79.4611
2490 2 -18.7187 -56.0404 -20.6714 -60.9557 37.8605 7.65412 12.1872 -0.974309 35.911 -89.0107 109.587
5187 1 -13.0868 -50.803 -17.6362 70.8556 -36.2093 103.23 -65.4755 36.9505 -29.0412 -363.559 188.32
10084 1 -11.6846 -56.2744 -16.2679 43.3901 63.8215 13.3283 20.3046 -95.3444 -48.1363 -358.97 193.378
29775 1 -8.20779 -56.08 -19.649 26.3152 82.9336 69.3568 -86.8338 -7.07619 57.7384 -380.04 188.13
2488 1 -12.789 -52.8342 -20.1327 79.2134 34.6909 38.6314 -54.3315 100.274 -59.7419 -365.487 227.046
27479 2 -12.6127 -51.8024 -18.8874 -40.4216 20.8104 -69.2783 38.0998 -49.4647 39.1627 -83.8736 150.483
6 2 -9.84305 -55.7679 -19.7573 14.8922 -54.0415 -21.218 23.7716 9.30246 -44.3075 -79.7787 106.822
5100 2 -11.4123 -55.7195 -17.7405 -7.637 -37.7146 -28.5374 -3.37943 49.5075 -17.0341 -86.272 94.7131
5175 1 -11.3999 -55.6434 -19.3387 15.4677 84.9149 43.3865 -13.7442 -53.9181 93.2382 -365.82 197.565
2963 2 -12.154 -54.2559 -19.7307 -33.9687 -24.794 -25.3227 7.02304 -13.992 -19.6896 -85.3173 44.4741
2595 1 -8.71617 -51.7271 -16.6675 25.2061 50.7668 93.668 -69.3331 3.87504 56.3127 -374.474 166.042
5471 2 -9.68914 -52.7231 -15.8052 17.0911 -11.8516 -44.5865 28.9411 -7.18996 -34.0869 -80.3382 94.9226
5081 2 -12.3724 -50.671 -16.1177 -1.44533 -28.6428 -7.82609 4.44936 7.86582 -7.27977 -83.5399 31.7941
4977 2 -7.81011 -52.5253 -17.6876 -34.6438 -16.0816 -50.4011 26.9326 -0.798182 -17.7384 -80.5926 63.3032
7665 2 -7.58496 -54.8169 -18.9638 -8.74914 -38.4854 -64.2395 57.2156 7.03728 -35.9091 -78.8048 127.087
27755 2 -12.4504 -55.3291 -15.0759 -19.9083 -7.50775 -10.7854 -34.7972 23.9151 29.3554 -87.0947 89.7632
7763 2 -9.53498 -50.6528 -17.6021 42.5281 -86.5861 -57.6096 7.33261 10.4545 -21.8846 -80.2893 125.279
5170 2 -7.88877 -50.6275 -15.7512 -14.7032 -50.3925 -25.5216 70.3514 12.5536 7.10539 -80.1507 128.362
9754 2 -3.79285 -56.5783 -19.1493 -14.9916 -12.8743 -86.6345 5.39392 0.810011 -38.5107 -71.3658 99.133
10245 2 -4.19862 -56.1354 -16.7465 40.9604 -48.1856 -95.6595 9.90865 39.2145 18.7743 -77.3284 142.822
15338 1 -6.81148 -53.4369 -18.5213 34.0092 76.0232 96.3893 -54.9771 6.41533 46.9338 -375.312 137.24
10096 1 -3.14732 -55.4253 -20.168 46.2128 75.0219 79.0619 -38.4744 20.8147 79.2884 -389.376 159.885
10074 2 -5.93202 -52.6562 -19.7115 11.6743 -62.3202 -53.1157 14.9105 -11.1574 -10.9064 -79.7749 79.2219
2606 1 -4.89641 -54.7641 -16.2785 -117.859 148.761 99.5016 -34.3848 -62.0665 10.8361 -377.27 275.382
12185 2 -5.74841 -54.0786 -17.4744 6.29019 -52.1624 -48.537 18.3583 15.4194 -31.1548 -78.9394 88.6237
7637 2 -3.69925 -51.2693 -19.7491 6.67502 -45.7345 -57.0231 -1.12868 -11.5854 37.8741 -79.5054 90.4193
17628 2 -3.74388 -53.7336 -15.7584 46.3054 -41.3618 -52.4597 26.7982 45.0608 -6.57718 -79.4427 130.986
5474 1 -4.53995 -52.584 -20.4744 -56.996 188.378 121.893 -15.3854 47.33 -9.88445 -374.857 236.725
5070 2 -3.92851 -54.0877 -20.0137 -18.5862 -108.38 -55.9239 12.8085 -10.0142 -29.4531 -77.8906 97.467
7772 2 -1.64768 -54.8535 -19.8265 0.503006 -64.1423 -21.3817 8.62513 11.88 -45.1781 -73.8806 100.065
12503 2 -5.87536 -55.0855 -15.0551 55.5076 -93.1431 -42.4608 33.051 23.3838 5.45296 -80.4638 148.79
15358 2 -1.09982 -53.7618 -15.4341 -5.66465 -4.86836 -88.5626 12.7862 -11.5874 -0.478148 -84.2721 88.5023
5152 1 -0.868858 -53.5126 -20.3023 -63.1501 264.17 52.8735 -30.5535 -38.2473 31.427 -377.275 304.59
12572 2 -0.260186 -56.0998 -16.5915 -16.4101 2.67834 -115.755 -3.78906 -7.21378 22.417 -80.0074 117.63
10172 2 -0.46463 -52.6645 -19.0039 19.7126 -116.691 20.5101 2.71362 19.8336 -9.51163 -79.1104 142.088
5092 1 0.709067 -52.4672 -17.8777 -2.95066 197.855 -31.3458 24.1898 53.7431 21.5038 -373.772 242.154
17398 2 2.04502 -52.3118 -18.7435 31.0514 -128.492 -33.0311 -10.4035 -30.8319 -7.82564 -81.9835 150.655
15652 1 3.64967 -52.4016 -18.8547 -64.598 216.815 59.0497 13.6166 -9.53621 58.1426 -366.252 265.813
7671 1 0.149425 -54.749 -15.8626 4.40205 3.93605 184.907 -14.7341 42.3123 15.3799 -368.114 198.49
10366 2 0.82065 -53.7854 -16.9144 -11.5259 -46.477 -26.0154 1.41583 -36.9825 -30.799 -81.18 88.7692
9993 2 3.94766 -53.4881 -19.989 -13.5836 -65.1404 -62.2337 -1.70291 31.9001 -13.9388 -83.7512 78.4927
2899 2 0.561937 -51.2434 -16.8804 -20.3265 -47.6097 -18.9852 -32.4522 -29.6265 2.94742 -81.3356 81.2493
20145 2 4.23127 -50.9815 -19.3819 13.219 -82.333 -69.721 30.5441 26.6063 -19.4003 -84.6172 118.894
10268 2 4.27076 -54.9785 -15.8732 36.3239 -24.3898 -83.5484 27.7725 -26.0573 -2.37721 -82.8854 123.067
17976 2 4.3608 -52.9502 -17.5143 30.4011 -96.0984 -7.38209 -2.46233 1.13501 -23.7456 -84.171 119.849
14864 2 4.24968 -55.8104 -20.8787 -59.9753 68.6582 -109.153 -7.2713 9.59461 11.9218 -76.0173 161.716
17654 1 4.48227 -56.2305 -14.9904 -76.9543 7.15591 210.73 -49.3549 13.4396 -13.1323 -371.808 272.042
12603 1 5.15795 -53.9633 -16.6056 -23.3784 125.902 68.3412 -29.8481 11.8039 19.1614 -364.872 145.593
17838 2 6.2738 -54.8335 -17.3382 -15.3107 -36.9431 -36.8085 9.02828 -7.56379 0.903217 -84.0823 29.7267
20053 1 7.79241 -54.4578 -17.6202 49.5355 77.4064 31.6888 25.2212 22.7814 -7.42828 -363.966 72.274
12900 2 8.69366 -54.904 -16.349 -41.9389 -23.8383 -12.6196 -7.53408 2.86881 2.92236 -85.381 29.6168
25063 2 8.36747 -54.9603 -19.0366 -31.877 -0.289194 -41.4656 -28.219 -33.6018 35.6238 -83.0579 104.766
10398 2 5.92557 -53.0535 -15.4656 -4.18257 -47.7788 -28.527 9.53652 8.88484 37.7319 -87.3935 78.8207
15253 1 7.66908 -51.3603 -18.5601 20.892 7.72049 58.8567 -5.67529 -22.0472 48.9197 -359.087 104.159
12595 2 7.68784 -52.8071 -17.8692 -18.157 -51.4344 -7.12173 0.191901 -0.911238 -16.9937 -87.8648 49.6523
17549 2 9.16165 -50.8332 -18.4878 11.2948 -18.6851 -44.2473 -12.7422 13.6427 -21.5698 -87.8667 68.9914
18056 2 7.46262 -51.6617 -20.1675 -7.78442 -24.8197 -92.1946 -13.1515 18.9518 -3.45702 -87.5473 87.2329
7563 1 9.99537 -55.3383 -15.4282 61.741 -24.2177 36.6936 -2.00829 63.2599 -54.5139 -365.805 163.695
12387 1 8.60236 -55.0803 -20.5819 39.3967 -37.35 135.224 60.7585 95.6851 -123.759 -371.893 326.983
10185 2 10.1207 -55.4711 -20.9026 -18.6405 10.1266 -58.2157 -46.6341 -57.3819 58.3866 -82.0933 173.671
19891 2 6.69414 -50.6292 -15.3733 -36.2933 -15.0107 -3.07784 -18.2486 -17.7657 11.683 -87.9517 56.6099
24787 2 12.7462 -56.4189 -18.0908 -66.6246 66.8479 -33.521 -20.061 -51.5216 64.812 -81.274 190.433
5286 2 11.2546 -55.1912 -16.4259 -7.29169 -0.222338 -28.3602 7.69991 -46.5733 46.2672 -82.7572 117.26
22560 2 11.5209 -51.3844 -19.1189 26.6358 -33.0535 -31.358 -19.9217 -10.6644 2.03579 -87.7667 70.7724
15014 1 12.4999 -54.9792 -17.4021 61.6065 -57.6006 21.8645 24.6893 63.02 -133.971 -369.049 280.428
15083 2 12.2326 -53.9042 -18.5225 -22.2623 -0.785365 -14.5835 -9.39277 -15.5504 52.6019 -85.1789 98.2156
24877 1 12.3132 -52.7254 -19.694 5.67605 13.392 35.4135 5.47509 54.4807 -85.5808 -362.7 177.992
12577 1 14.4936 -51.3979 -16.0825 -58.2967 99.3456 57.8324 44.1941 -28.9747 -19.1451 -353.313 171.778
19987 2 14.9367 -51.6181 -17.5913 1.50495 -86.3967 14.1713 -26.4062 14.8374 -3.77649 -90.0601 108.608
12780 2 13.8418 -52.2191 -19.7979 -19.3059 -38.5856 10.3784 1.93333 -43.1961 18.8141 -88.0545 92.1739
2377 1 15.1133 -51.3766 -19.1768 28.2575 136.99 -71.6968 71.1036 55.5261 -0.340608 -354.711 238.954
15199 2 13.7447 -54.5235 -16.5152 -21.5639 -14.9772 -15.0407 -1.37398 11.0306 49.1023 -84.5019 87.4458
22716 2 12.9299 -51.5562 -15.785 14.2491 -56.6869 -18.7814 -29.6411 -23.9014 4.63055 -90.6171 90.5197
7455 1 11.6371 -50.7917 -15.2868 -9.48031 49.8063 0.914477 18.1968 78.6463 -14.9465 -354.598 152.401
20066 1 14.7391 -54.1305 -15.3096 -46.5485 140.102 64.8348 29.5684 -34.7947 12.2734 -360.793 182.104
20070 2 16.5464 -51.8063 -19.689 -5.34009 -55.5036 9.66605 -55.7728 27.2375 10.1278 -90.0816 123.933
12605 2 16.2445 -54.7655 -15.5116 48.0459 -39.7563 -30.5526 -19.7925 8.29337 29.45 -85.5327 104.734
2778 2 15.1029 -52.6018 -15.2093 54.1332 -68.1516 -53.042 -18.4259 16.0578 -25.5263 -90.4123 130.695
25313 2 16.4179 -55.3786 -20.6875 -38.7083 60.0465 -43.1379 -7.20006 40.103 45.2044 -89.6772 146.014
22368 2 17.5327 -56.4723 -18.7075 0.588806 20.0214 7.12345 12.0738 67.1214 60.0796 -87.3106 158.352
25259 2 21.4604 -55.5822 -16.1113 -106.745 88.6308 -8.59901 58.0522 25.3236 79.9771 -99.0108 244.647
22554 2 18.7729 -51.0644 -17.4522 54.6103 -89.0673 45.7968 -34.3557 52.949 8.47634 -92.3612 177.825
22570 2 19.8644 -55.2012 -19.2352 -90.5749 58.4559 -4.17296 30.9067 113.117 65.044 -94.7175 265.976
27568 1 21.0096 -54.0419 -19.381 134.81 -64.0725 -25.1177 -92.0058 -154.306 -81.2532 -343.164 387.243
25163 2 20.596 -52.6749 -18.5398 -49.9896 -20.2599 33.6729 13.9689 72.146 35.1109 -97.5974 159.044
15157 1 19.9448 -51.2323 -18.5458 -0.353677 82.0991 -88.1754 23.3091 -159.437 -12.2344 -346.783 316.372
12978 2 19.1647 -51.1343 -19.9644 13.931 -37.809 4.05127 -25.4912 92.1525 -14.9107 -90.256 174.23
22538 1 18.5193 -51.27 -15.8723 -165.809 120.774 -11.991 69.5779 -68.0432 -79.3452 -344.914 330.163
24693 2 22.1243 -54.937 -18.6381 -73.6554 68.5871 -15.0926 46.1614 34.8539 60.2619 -97.5913 190.431
15152 2 18.0404 -52.7522 -15.5469 80.216 -57.9551 -40.7556 -18.7494 18.9027 4.5421 -94.3357 138.561
25238 1 22.6382 -55.242 -17.1415 155.711 -185.35 21.1193 -70.4382 -48.6695 -170.47 -335.8 444.64
25134 2 20.0323 -51.0096 -15.3291 61.7539 -54.3342 8.45045 -6.48609 30.1711 25.0045 -101.517 121.912
22365 2 21.7707 -53.3894 -20.7105 -52.0004 -25.6923 72.2782 59.2076 32.6932 4.12854 -91.5003 163.224
27352 1 17.821 -51.6337 -20.7017 25.0008 42.0546 -6.71891 87.4457 -145.802 -2.74631 -354.254 297.616
10066 2 18.8894 -55.256 -15.2592 -26.2782 31.9489 -14.8128 1.26238 -34.0306 64.4707 -92.3381 137.123
12555 1 17.6271 -54.2306 -14.996 -119.866 84.475 85.4959 20.9272 23.7294 -23.9115 -352.526 216.064
12508 1 20.274 -56.0674 -15.0691 212.125 -213.64 22.8751 -73.4163 37.6884 -131.315 -346.052 456.812
19968 2 22.8004 -51.1843 -16.4589 -67.2669 1.54074 83.9582 15.0052 24.9723 16.7287 -108.508 143.471
27640 1 22.9864 -52.323 34.9459 92.9092 115.436 -211.311 -28.216 -12.2262 36.0029 -350.507 326.552
12701 2 23.368 -53.88 -16.702 -81.538 33.0568 51.7325 36.2405 8.89791 81.7661 -104.062 199.639
301 1 23.8246 -52.402 -16.3128 141.722 28.9616 -210.682 -49.7713 5.76758 -101.195 -317.443 367.993
297 2 23.7396 -51.9951 -19.6112 -35.1613 -64.96 86.0585 16.8441 -8.48093 14.0877 -97.5782 144.419
27562 2 25.0388 -51.9915 -17.3036 -16.724 -31.5035 86.5115 16.8871 -53.8772 38.6009 -104.251 162.59
266 1 25.2057 -51.9182 -18.9109 36.3176 82.9682 -120.836 -19.2059 91.6792 -71.2009 -334.79 275.2
107 2 26.0119 -53.2049 -19.3958 -16.1349 -20.4325 29.918 -15.3594 -47.7071 50.0711 -97.7954 131.887
27722 1 27.5128 -53.7974 -19.4593 50.9148 -5.22509 -13.8858 27.8272 51.3009 -116.377 -341.281 233.585
25135 2 27.454 -55.4583 -19.745 -50.2668 74.8533 -25.5304 6.23881 -30.4946 35.2684 -94.043 140.748
22654 2 28.2018 -53.4047 -18.0344 14.4792 -23.419 26.3603 -19.1398 -3.94376 50.6356 -97.1464 104.236
25062 2 28.3437 -53.1192 -20.6528 -40.0283 -14.028 -25.0771 1.40396 17.4396 16.638 -96.1625 47.5355
22620 2 28.9243 -51.0861 -16.6463 33.8024 -28.4556 19.5655 -36.1508 -39.4875 -4.40626 -99.3618 108.853
27762 2 26.0403 -50.5933 -19.4206 -40.2428 -15.3861 66.4998 11.0667 -34.0677 3.13514 -97.233 115.053
2519 2 -25.3122 -54.0626 -19.2452 -46.2458 37.7237 -32.4201 -19.9237 -28.2946 15.7257 -97.161 102.057