ITEM: TIMESTEP
260000
ITEM: NUMBER OF ATOMS
29952
ITEM: BOX BOUNDS pp pp pp
-2.5137656184913688e+01 3.5122950527621192e+01
-6.8675929509723048e+01 7.8661223851723051e+01
-2.1027784689789229e+01 3.4895637835931232e+01
ITEM: ATOMS id type x y z v_StrAtomXX v_StrAtomYY v_StrAtomZZ v_StrAtomXY v_StrAtomXZ v_StrAtomYZ c_PEAtom v_VMS
25058 1 -21.3295 -67.1535 -16.1198 120.49 -159.8 90.5487 -43.7765 74.376 -65.9898 -347.704 326.305
7576 1 -23.9867 -63.4688 -19.7845 88.4579 -118.798 51.7766 5.19387 21.0194 -77.5571 -347.243 236.96
190 2 -20.718 -63.2673 -17.5168 -37.7128 42.5672 -67.1928 15.2698 -60.0787 13.545 -96.9552 147.509
5142 2 -22.7509 -67.3195 -16.9832 -138.77 82.027 -40.9676 18.37 -0.0942299 41.5267 -95.5159 207.142
29779 2 -20.5124 -65.6711 -16.253 -46.4762 84.3708 -35.1866 44.8332 -57.8783 -11.802 -92.5623 179.635
2392 1 -23.9417 -66.5834 -20.3644 276.056 -179.045 -71.2507 1.01578 52.2544 -66.9659 -354.119 437.41
2581 1 -24.3622 -67.3485 -17.3866 219.775 -182.733 51.2487 -46.2479 36.6356 -69.6774 -344.969 384.172
86 1 -19.628 -64.2729 -16.7575 91.7485 -97.1961 51.594 -66.8816 93.0694 20.2769 -346.755 265.262
29664 2 -23.4844 -64.9885 -20.1063 -83.2699 93.1738 -0.48815 9.28208 -19.6211 45.4369 -91.8806 176.028
24666 2 -24.5256 -67.0345 -18.9442 -126.497 97.2699 17.3823 12.4612 -34.5151 11.3073 -91.5062 207.366
29864 2 -22.9576 -67.9752 -20.6781 -121.686 92.4337 28.2874 2.58357 -39.481 32.9079 -90.0182 210.171
2576 2 -20.5095 -68.5075 -16.5011 -46.8233 57.2386 -50.6822 2.13642 -32.7798 54.4761 -90.1547 152.923
249 2 -24.8377 -66.0925 -16.4814 -76.7013 91.8809 -38.5859 -0.134454 -14.0888 31.1587 -94.9062 164.181
2 1 35.2362 -65.3745 -15.0504 114.342 -173.077 61.6704 22.081 39.8185 -59.1536 -345.299 294.893
22547 2 -19.4864 -65.3274 -20.2021 -148.215 60.828 4.30589 2.82342 -61.5458 57.6157 -94.3522 237.538
5291 2 -23.1035 -62.8139 -18.6294 -15.4419 47.4078 -24.6174 8.83946 -18.327 21.4556 -95.5597 85.0531
27573 2 -18.6188 -64.9289 -17.7841 -91.8284 48.3352 -10.3144 11.2018 -24.3855 11.9505 -92.6389 132.113
7464 2 -18.5748 -63.2784 -15.9327 -18.4896 5.21028 -19.4413 44.3613 3.2668 3.34046 -92.8873 80.9594
27651 1 -18.1363 -65.1936 -19.276 272.655 -159.939 -10.6875 -2.86637 35.441 -82.7553 -349.463 411.323
275 2 -17.3053 -66.5906 -19.2569 -122.549 111.611 -8.91356 -34.38 4.74539 41.2535 -86.9111 223.28
4986 2 -15.9786 -63.8875 -15.8843 -32.3584 39.1102 -40.3417 -1.61678 43.5169 -26.5539 -88.3031 116.389
27644 2 -17.4217 -63.8829 -19.9472 -105.834 33.1836 -3.78191 45.8011 -20.6266 62.8531 -94.3731 187.015
7381 1 -15.1215 -65.1706 -15.4947 62.611 -113.533 106.098 17.6441 -55.8492 38.9978 -366.254 235.439
2669 2 -15.8851 -66.5795 -15.7583 -38.2711 52.2844 -58.9662 -10.4806 34.5088 -4.11414 -82.9463 120.231
27563 2 -13.9017 -65.1462 -16.4854 -11.7132 62.9683 -93.8859 -14.6892 10.7555 -14.5693 -82.4329 141.766
2966 1 -13.6487 -62.7563 -19.6408 61.1696 24.3019 25.6647 0.819697 -47.7124 -44.3557 -362.287 118.51
4887 1 -16.8666 -68.1012 -19.1348 163.98 -126.914 24.0569 66.1011 -5.97549 -117.671 -366.351 343.874
7432 1 -16.0383 -68.1867 -16 62.7484 -8.66689 60.3261 32.1443 -58.5759 -36.105 -372.131 149.12
4904 2 -15.6171 -68.4753 -20.1483 -42.5115 30.3476 -44.9244 -49.2431 -9.21482 63.1235 -82.8271 158.029
2671 2 -16.5568 -68.4246 -17.5539 -58.4208 20.0364 -0.28694 -16.2537 24.8198 51.1367 -81.7409 124.336
5068 1 -17.0674 -62.6161 -15.9619 61.0572 -63.257 48.4334 -66.4356 -43.2984 15.3764 -349.574 183.354
5172 2 -14.3237 -63.1327 -21.0296 -37.0536 -10.409 3.32735 35.6414 -10.5874 73.6984 -85.8468 147.33
2219 2 -18.1058 78.3475 -19.6283 -98.7081 77.1826 -33.2925 -0.413332 -42.295 41.6732 -87.2772 185.17
309 2 -13.1844 -64.0931 -18.7357 -30.171 38.2509 -67.5635 -30.5422 44.3407 11.6205 -81.3979 133.192
5104 1 -12.6584 -64.5451 -17.2506 37.3059 -109.964 214.096 61.1007 -43.5686 25.1476 -370.515 312.683
7820 2 -12.3284 -63.1768 -16.4376 -16.0665 -2.69746 -79.415 -18.5839 26.4252 -16.5158 -85.7195 94.8047
7506 2 -9.02692 -65.4112 -18.1784 -35.7499 47.4286 -160.624 -24.2221 1.88893 18.4466 -75.3378 188.92
10192 1 -10.1397 -66.5346 -17.7885 105.847 -108.529 251.174 55.4465 -38.5346 -60.342 -379.857 350.476
19 2 -11.4126 -65.6425 -17.339 -45.262 64.6975 -130.991 -40.3601 11.3028 20.6244 -79.4531 188.184
12390 2 -9.32846 -67.6296 -16.9371 -19.5093 -1.21528 -116.233 -27.4847 15.9404 25.332 -78.6113 128.114
7582 2 -8.2388 -63.7369 -16.3497 5.33436 17.2338 -133.845 -13.39 8.00682 25.3202 -77.176 154.344
2403 1 -7.91622 -64.2717 -17.8619 7.70738 -51.6326 320.936 44.5167 -22.1702 -15.4457 -384.817 358.267
7481 2 -10.8605 -67.6774 -18.8335 -70.082 16.2188 -48.7929 -14.9237 35.7736 73.4389 -76.4202 163.557
12389 2 -7.92644 -62.8363 -18.6236 -20.8209 -16.6648 -108.2 1.61208 13.1231 -5.56395 -75.307 92.9129
17269 1 -8.85078 -62.946 -15.0632 8.86515 1.11279 179.08 -19.7383 -43.4994 -43.3039 -376.609 206.939
7687 2 -13.1715 78.6036 -19.74 -43.2697 -16.5597 -20.5831 -35.785 40.4987 73.2936 -78.5855 159.688
7473 2 -6.51857 -65.1353 -17.9528 6.91737 29.978 -185.652 -37.7394 22.6779 18.5352 -72.2258 221.138
5388 2 -5.06943 -66.843 -16.2853 -20.093 -9.71666 -123.165 7.09235 20.5641 25.0265 -74.6717 122.88
25250 1 -4.99336 -65.7185 -17.6263 9.20781 -69.1131 364.3 42.6599 -44.924 -80.1339 -390.535 436.823
10234 2 -4.28534 -64.194 -17.6461 9.86739 31.2844 -191.771 3.54002 53.4452 32.19 -71.046 239.062
10079 2 -4.36627 -66.8466 -18.6493 -32.1948 -6.36515 -113.185 -21.5688 -17.3254 81.6024 -71.7859 177.74
15051 1 -3.64653 -62.6152 -17.8257 -37.0172 3.48742 300.861 25.7943 -116.838 -2.28035 -391.097 380.896
9883 2 -2.08097 -62.8087 -17.5637 17.4487 -31.8629 -118.06 -35.1187 50.0072 5.26008 -73.7577 159.365
4830 2 -2.69467 -67.8479 -20.3049 -15.6981 -52.9365 -61.5349 28.8238 -32.379 57.407 -73.9862 131.549
9940 1 -5.62107 -68.2006 -15.5746 -3.09441 115.989 174.215 29.3634 -36.9322 -68.5001 -381.187 212.744
10189 1 -3.93507 -68.3399 -19.3595 35.0038 101.332 139.231 28.1384 47.8526 -160.726 -385.12 308.371
15066 2 -1.18145 -63.4131 -15.1911 -7.77319 -40.3208 -94.6892 -2.10936 32.6374 -4.49564 -83.987 95.1546
10070 1 -1.2712 -67.906 -21.0933 79.7209 64.7826 103.584 -103.124 5.50146 -59.2356 -380.273 208.974
29770 2 -6.92691 -68.7213 -16.4158 29.9675 -65.7752 -110.444 -25.2309 5.69018 37.2686 -77.3878 147.011
7599 1 -0.701214 -62.9346 -16.6833 -8.78077 93.0807 167.79 42.3986 -50.8652 -38.3642 -373.506 202.824
22353 2 -0.0101835 -67.9517 -19.9636 -68.2654 -20.4364 -54.2411 64.5958 10.7193 55.1516 -78.9098 154.276
7414 2 0.94788 -66.7652 -17.7248 -84.5291 41.3242 -39.7989 64.8452 3.01692 96.9108 -76.5141 230.277
7586 1 1.46157 -65.1286 -17.8821 138.835 7.36455 52.8541 -96.8522 37.9238 -213.539 -375.741 427.347
12678 2 2.91093 -64.7604 -17.303 -53.8714 -14.8179 -18.5016 33.7886 -15.0049 71.1695 -83.4623 143.842
9882 2 0.393447 -63.9806 -17.2616 -30.2394 -44.1375 -40.8469 12.0572 -24.6553 84.5625 -80.1532 154.501
19749 2 1.56177 -65.0239 -19.4876 -100.526 -7.48848 -20.1404 76.7448 14.6964 78.7231 -77.7847 211.064
22456 1 0.880396 -68.1862 -18.6169 130.755 -18.16 107.017 -111.217 -33.6437 -124.905 -379.132 326.361
17367 1 4.13414 -62.6757 -20.4305 147.577 -23.2357 117.128 -88.235 24.678 -4.92348 -372.376 223.962
27343 2 4.12925 -63.1448 -18.8441 -71.8795 -32.0468 -8.20419 48.9512 -17.1779 -5.91327 -83.9242 106.224
22573 1 4.41773 -63.9807 -17.4661 76.6367 43.3173 26.6808 -74.9368 23.0542 -90.4835 -363.094 212
12568 1 1.75767 -64.8575 -21.0888 213.102 -9.54761 40.0504 -155.59 -106.272 -102.256 -382.211 422.924
9967 2 4.84624 -62.7706 -16.4323 7.91249 -62.3201 -25.2226 48.1091 -19.7772 -1.34616 -90.5033 108.746
24682 2 5.52242 -65.213 -17.3763 -57.4721 40.5239 -60.4089 21.3252 -26.0083 63.1935 -82.8186 158.976
22259 2 5.8505 -67.655 -16.2055 -146.014 73.3673 -58.9832 -3.53645 -57.9136 24.0169 -77.9135 220.09
17474 1 6.47715 -66.5876 -17.2328 167.651 -170.024 163.187 -68.4973 111.46 -123.675 -377.325 458.006
12675 1 9.66714 -64.6448 -20.0728 35.8912 -18.3857 81.4225 5.81229 77.3612 -62.265 -369.33 192.813
4892 2 6.61309 -67.3436 -18.6624 -83.6551 63.9132 -91.3058 24.6132 -49.7112 63.1581 -78.3323 210.147
12282 2 8.012 -66.0779 -16.781 -24.0026 70.4865 -103.005 39.122 -61.5923 70.8692 -77.0277 231.677
17475 1 9.36978 -65.183 -16.8306 1.53544 -17.7541 198.428 39.7363 103.613 -173.911 -373.283 413.057
19689 2 8.96969 -63.8503 -16.0367 -29.5928 -49.7372 -82.8456 -7.90895 -65.8078 75.1897 -88.0435 179.747
22449 2 9.47768 -64.865 -18.4871 -19.224 -16.9502 -48.2923 -4.1063 -49.7679 79.463 -82.552 165.349
19661 2 10.2624 -66.172 -20.5649 -48.0406 57.156 -101.298 17.9095 -16.6653 43.9305 -81.1625 164.591
15050 1 6.45865 -68.5041 -19.7719 106.131 -14.0094 125.964 -13.7571 109.052 -87.0817 -377.252 276.051
12689 2 8.31936 -64.0048 -20.7206 -18.2569 11.8183 -50.2578 -3.82301 -20.2225 17.9766 -81.7655 71.6322
12656 2 10.7252 -63.4477 -20.4208 -21.541 -8.03947 -28.6422 -17.4587 -42.1161 10.9361 -86.173 83.2052
19975 2 5.72017 -63.0557 -20.7893 -38.4414 -0.936378 -55.9719 22.6688 -42.4594 21.4538 -81.64 103.452
17699 2 11.018 -65.3917 -16.4802 -27.8248 7.07832 -97.162 -86.3132 -12.6603 37.6727 -79.7826 188.506
27453 2 13.274 -64.4401 -17.7043 -55.83 6.09675 -35.3659 -52.7709 -17.724 -7.58487 -83.154 111.605
15400 1 12.6409 -65.6777 -16.7656 136.372 -36.1876 139.377 165.465 -59.7162 20.5741 -373.643 352.716
15275 2 12.4016 -67.2658 -17.2397 -102.065 48.6619 -59.0711 -25.1863 46.7579 -8.56371 -78.0007 163.611
22550 1 13.6334 -62.9382 -18.4285 77.6863 20.432 45.0905 56.5197 83.9517 -44.8942 -365.349 198.111
12478 2 13.0914 -63.1404 -19.9311 -46.0296 -15.7866 -10.272 -27.921 -44.0162 30.0916 -88.102 109.45
15370 2 13.7566 -65.8295 -15.5422 -95.9814 -5.73435 -35.6387 -95.8148 57.8016 -39.4905 -79.2957 220.416
19680 2 15.4057 -67.5011 -19.698 -28.9915 -2.08065 -35.9147 -32.9 21.4045 3.76233 -82.2265 74.9839
17460 2 16.3498 -66.311 -15.74 -40.0484 -44.6309 -0.0219442 -4.3695 -7.56788 -26.3327 -81.6339 64.155
14888 2 12.6866 -67.1632 -20.6971 -47.9217 54.8849 -87.5198 11.1215 -28.2106 14.0826 -82.6174 139.863
19930 2 16.3991 -63.3741 -20.7272 25.4411 -2.11793 -93.5607 -1.95104 30.6719 10.6691 -87.3233 121.723
22575 1 11.19 -67.5347 -20.9883 92.045 -147.484 214.422 -65.4567 24.2735 -60.5841 -373.535 356.785
24758 1 14.3354 -67.0108 -20.8564 93.9177 -77.2078 146.115 49.6564 12.4367 -6.01678 -366.33 221.158
24843 1 17.0342 -67.6031 -19.5795 112.258 11.7085 43.9284 31.6514 -45.5917 -25.3372 -366.736 138.115
17596 1 15.0446 -66.4289 -14.7005 171.4 50.5488 -8.82255 63.7734 -70.7134 72.4834 -372.539 261.283
102 2 17.4658 -66.8606 -18.1906 -70.3559 -30.595 -7.66032 1.12004 20.0211 17.7653 -83.6871 71.9162
10358 1 17.7096 -66.6323 -16.5716 107.038 33.0189 -5.45464 -61.2085 13.803 6.208 -368.128 147.423
27362 1 19.8311 -63.9108 -16.2396 190.585 -183.23 114.932 -61.4675 9.72223 33.7328 -363.373 363.611
22661 2 21.1827 -64.7051 -15.7691 -82.5089 77.6326 -43.7251 16.9259 -5.68159 -48.8098 -86.3826 170.417
9996 2 18.7508 -65.2084 -16.3471 -85.6729 35.1274 -33.3182 50.8637 -4.35217 -31.5304 -83.5671 147.682
17662 2 19.7629 -62.8439 -17.5141 -84.7563 11.8385 -59.8925 19.2484 38.569 58.7324 -88.6861 153.198
24960 2 22.1457 -67.1704 -16.4054 -45.2587 -53.5459 12.8874 -25.3776 1.83689 11.7405 -86.4592 79.292
27392 2 22.4806 -66.6872 -20.4738 -53.2798 70.4309 -34.2003 -4.28889 54.2789 54.971 -88.8141 176.825
17884 1 21.7941 -66.1114 -15.2249 74.6721 -6.71106 14.6819 2.86193 10.5565 104.822 -360.969 196.625
15147 1 21.4373 -67.8641 -20.2608 97.3452 -80.4415 45.1013 2.21264 -60.4837 -148.375 -359.401 319.506
15180 2 19.7769 -62.7503 -20.0695 -53.6664 4.17127 -37.0702 -16.8618 72.852 55.3682 -89.901 169.212
20057 2 20.0988 -67.1123 -20.843 -60.4604 50.5981 -37.085 -10.5485 10.7324 53.645 -87.5855 139.99
25065 2 19.7154 -62.6707 -15.0026 -98.6705 117.064 -50.4979 23.3714 -44.1812 16.3644 -84.1004 216.258
5093 2 21.2897 -68.0897 -18.7084 -28.9272 -23.6991 13.0764 4.65497 12.2451 61.3418 -85.2072 115.652
12377 2 18.0908 -68.2602 -16.2728 -79.1019 -64.483 29.0805 46.4507 -10.9155 2.5656 -82.9355 131.095
17391 1 22.1329 -68.4927 -17.367 45.3155 125.434 -59.782 16.9496 2.07011 -83.4184 -367.761 218.255
12602 1 22.9303 -65.0929 -20.6865 81.0831 -90.4758 53.6666 -13.5454 -101.779 -112.049 -355.353 307.852
17576 2 17.5917 -66.7171 -20.8703 -13.0518 34.7069 -54.6266 -17.3082 22.7229 11.2298 -85.2744 93.9199
27367 2 21.6174 -64.2979 34.8226 -42.04 29.9909 -31.6679 -17.058 42.1069 58.7389 -89.58 145.229
2311 2 23.5747 -64.3699 -19.3735 -28.8564 39.2476 -72.8731 -7.01597 56.6265 63.8673 -91.7465 177.701
17544 2 24.8091 -64.5836 -17.1139 -74.033 77.6277 -35.2666 -25.5724 12.2523 -5.49992 -92.5373 145.353
22552 1 24.2646 -63.4307 -18.1745 82.8154 -115.355 136.828 60.6221 -24.4341 -92.1261 -347.417 301.944
27642 2 27.7468 -63.5943 -19.1772 -57.4087 74.8897 -69.058 -4.70927 -11.1947 2.07222 -92.7114 140.125
29876 2 25.4866 -67.0704 -16.3585 -99.7061 33.9724 8.38027 -13.7974 -13.7379 17.9986 -91.2225 131.198
17586 2 27.7435 -66.6686 -19.8079 -89.1626 132.169 -62.0935 -8.40811 8.2337 30.1136 -90.5394 216.484
29877 2 27.2589 -65.5617 -17.5814 -89.8771 78.4915 -44.26 -34.2805 9.2639 -0.0223125 -92.7406 162.884
24589 1 26.0459 -65.5098 -16.5677 233.105 -173.35 0.908472 47.7399 -12.8468 5.71054 -350.019 363.558
27661 1 28.1202 -65.2312 -18.9504 98.1719 -184.735 134.906 35.1416 -11.3204 -10.1815 -351.948 310.126
2487 1 27.2191 -68.2624 -20.0531 205.659 -152.346 84.2594 31.6764 -59.9625 -111.981 -349.64 388.406
19963 2 26.5837 -65.0445 -15.1343 -118.758 69.3804 13.2508 -8.7367 22.5299 4.82301 -90.942 172.65
25074 2 25.7499 -68.5916 -19.4712 -93.6867 36.536 -54.953 -45.4511 52.4547 81.7947 -93.4827 218.946
27375 1 25.885 -68.6212 -16.013 174.154 -25.7292 -47.3991 120.031 43.0618 -38.5009 -356.063 313.027
284 2 34.6644 -63.4035 -19.4052 -42.1325 53.0109 -29.5678 -27.5239 -12.564 33.4607 -93.455 118.827
24834 2 29.7493 -65.1482 -19.0321 -24.1703 63.3244 -69.8907 -6.13297 0.769576 -17.2995 -88.5256 121.484
27434 1 31.3361 -65.2388 -19.3165 51.0666 -149.679 83.8438 -52.6122 -8.45481 29.5941 -360.319 243.103
27360 2 31.519 -66.8187 -18.8851 -38.6418 92.8019 -45.3364 8.52609 3.20113 -6.20829 -86.8453 136.26
29844 2 32.0209 -66.8044 -16.4889 -43.6309 100.543 -60.4835 25.3204 -8.59362 27.4221 -90.5614 167.035
25162 2 32.3386 -64.1608 -18.5764 -39.2152 76.814 -27.5912 24.7506 3.4356 -1.85014 -89.7078 118.881
22115 2 31.3724 -64.0634 -15.5445 -73.3533 107.937 -26.0054 13.5169 -13.4301 24.8229 -90.0239 171.645
2594 1 33.4452 -62.7884 -18.5917 98.174 -119.138 31.0544 21.1099 4.29813 -52.3342 -347.854 216.223
27361 1 31.4695 -67.9829 -17.6744 77.8942 -191.101 133.871 -6.36639 -7.18537 -33.573 -353.429 306.932
24973 1 32.0484 -65.5977 -15.2638 113.515 -216.213 66.3936 -34.6972 46.4234 -68.557 -354.341 345.805
25218 2 31.5038 -64.8745 -20.9369 -32.9784 42.0819 -17.1341 11.4009 -13.136 44.7687 -87.0028 107.778
4903 2 33.6251 -65.2366 -14.8846 -29.1806 69.3538 -31.7319 5.60856 -30.6327 25.2829 -91.8706 121.631
20000 2 30.2187 78.7095 -16.8112 -55.5364 63.353 -46.8012 -12.0155 22.9019 23.0549 -93.2728 129.513
7574 1 -21.6823 -62.1215 -18.1531 47.2878 -92.0115 61.6189 -17.7127 82.0572 -32.6664 -340.501 214.356
29756 2 -21.0517 -61.2079 -19.442 -44.8544 69.9041 -36.6436 9.16863 -41.4001 13.0844 -96.4036 134.916
25173 2 -21.7452 -60.9874 -17.0267 -34.5324 71.6508 -46.3199 10.2648 -47.985 12.0036 -96.8342 142.553
267 1 -21.7931 -60.251 -15.5809 28.5894 -127.444 66.4925 -50.9314 95.4777 14.0121 -345.114 259.646
2849 2 -21.5669 -57.4966 -18.0978 -32.803 92.5301 -69.5678 6.87593 -42.3625 -8.8125 -95.4513 165.609
8149 1 -22.6941 -57.4464 -16.9395 -34.7178 -201.46 186.334 -54.8374 75.2902 1.59254 -345.549 373.578
5147 2 -22.4211 -58.7452 -15.9114 12.079 81.8151 -59.1125 21.1674 -44.8757 -19.5919 -94.2691 153.079
22660 1 -20.0197 -57.4791 -18.6225 94.7726 -189.588 60.6594 15.8293 34.3603 -18.3061 -342.955 278.609
2676 2 -19.7467 -58.8892 -19.4247 -49.6614 92.929 -23.4669 5.97576 -17.6533 10.1112 -95.4023 136.499
27572 2 -24.2558 -57.8673 -17.3803 34.9024 61.8605 -71.237 23.6199 -29.8806 -8.81667 -95.3266 139.424
7468 1 -19.9833 -60.3403 -20.2376 128.726 -198.349 58.9189 -19.058 49.985 -4.57635 -344.805 312.516
27658 2 -19.153 -57.2389 -17.2263 -19.442 92.3974 -67.3985 -14.7016 1.3651 17.9676 -96.9127 147.627
7645 1 -17.9231 -62.617 34.9261 157.885 -114.085 38.3683 -81.7142 83.5512 -144.176 -343.818 398.849
27569 2 -14.5976 -61.7444 -18.7434 -20.3291 -3.20385 -50.4048 15.0463 6.35798 7.89137 -92.5675 51.9629
7308 2 -16.7903 -61.5999 -17.2064 -27.4784 43.1255 -35.6652 53.1353 -2.16138 4.51006 -95.5746 119.059
5281 1 -18.2557 -56.6515 -15.9526 58.0921 -214.398 146.13 46.2752 -5.98983 -48.7357 -342.497 345.902
29941 1 -15.7621 -60.6717 -18.1166 76.6903 -82.6808 110.176 -53.9922 31.756 -28.689 -341.348 214.702
22089 2 -16.325 -59.9484 -19.5105 -35.9654 41.4551 -51.2255 30.9335 -7.3947 34.1171 -96.304 118.046
5088 2 -16.7467 -57.0645 -16.26 -45.2485 49.9582 -70.2863 -42.3993 -1.66716 45.8674 -96.1682 154.233
27635 2 -15.3728 -59.3031 -17.2782 -66.0989 19.7274 -55.0145 -2.76749 -24.3451 7.31355 -97.3608 92.191
5188 1 -15.676 -57.663 -17.311 90.6929 -50.0978 123.623 -1.87141 36.2541 -85.6067 -341.184 226.896
14861 2 -16.3972 -57.5385 -18.7834 -32.0097 11.5887 -43.034 -24.0632 -7.46998 23.375 -95.7394 77.7605
2870 1 -16.0857 -58.4259 -20.1137 85.5252 -3.80782 11.5239 29.8823 -10.5129 26.7708 -346.525 109.573
7769 2 -14.4489 -58.1353 -20.3055 -50.5264 -31.7986 -10.4022 3.8337 -39.9964 -2.29258 -91.3561 77.899
2490 2 -18.7199 -61.3482 -20.3519 -57.6509 95.3989 -49.1518 19.2143 -32.6798 41.4651 -95.5262 177.947
4884 2 -14.4175 -56.731 -17.2831 -63.0411 34.7913 -79.6876 23.7561 0.436902 57.1236 -92.3227 151.525
5467 2 -10.211 -62.1999 -15.4922 -2.61209 -34.3276 -75.7195 13.8245 33.8116 26.65 -83.7435 100.825
12192 2 -12.2893 -61.9256 -19.8462 -31.4866 -36.2924 -14.6725 -7.87241 14.8408 0.654022 -84.9709 35.1364
10084 1 -11.6454 -61.7002 -16.1321 -14.4972 82.4937 94.662 15.5792 -108.079 -13.452 -362.155 216.909
29775 1 -8.09076 -61.4524 -19.5416 19.3625 97.4925 128.796 -44.7824 -35.0218 21.594 -384.57 143.613
2488 1 -12.8128 -57.9468 -20.0269 29.8934 75.818 76.1226 -58.9274 120.082 -33.7434 -360.631 243.342
27479 2 -12.613 -56.6861 -19.0243 -0.975389 19.624 -80.1548 59.1486 -32.6667 37.83 -84.6415 162.219
6 2 -9.75109 -61.0835 -19.609 25.8601 -61.8277 -56.4493 7.27172 9.62778 -27.5308 -78.6993 99.7848
5100 2 -11.416 -61.0201 -17.5358 24.5933 -43.9935 -54.7388 -10.7206 50.143 -20.9445 -85.7383 121.492
5175 1 -11.3123 -60.7698 -19.2189 -42.758 105.402 104.989 7.21673 -36.2422 71.3643 -366.269 203.14
2963 2 -12.0802 -59.3399 -19.4876 8.9405 -47.2059 -54.0874 5.41453 -20.2023 -6.41326 -87.0421 70.8653
2595 1 -8.58052 -56.8762 -16.6704 21.0109 48.3793 128.426 -72.8958 -43.9032 31.571 -373.665 184.557
5471 2 -9.35112 -57.7092 -15.5369 13.802 -17.3278 -50.8014 47.5194 29.9293 -20.8286 -80.6368 117.875
4977 2 -7.76319 -57.9222 -17.6399 -13.1966 -16.0737 -68.039 26.4744 9.73156 -10.2023 -79.4048 74.5468
7665 2 -7.48293 -60.0861 -19.0051 6.78374 -48.0426 -80.6479 51.0727 28.8416 -20.1911 -76.5298 131.911
27755 2 -12.3711 -60.7116 -15.1594 25.2008 -29.9941 -50.4805 -12.5101 61.7566 4.79658 -86.8585 128.752
17457 2 -7.51318 -61.9008 34.9558 -57.674 -43.558 -14.9756 16.0917 13.132 16.9344 -70.6548 59.7844
9754 2 -3.75515 -61.7529 -19.2265 -14.5189 -30.9047 -86.4033 2.93502 17.9797 -24.3506 -68.6544 83.8598
10245 2 -4.27255 -61.4963 -16.7946 37.341 -33.5349 -126.1 -25.4041 51.4619 9.98557 -75.7129 174.162
15338 1 -6.67353 -58.7372 -18.5603 -1.17481 84.2132 144.487 -60.2535 -3.14795 49.9392 -379.459 185.671
10096 1 -3.19633 -60.6109 -20.2807 46.8843 49.2293 95.9801 -36.8752 24.8838 96.7504 -396.114 190.577
10074 2 -5.94923 -57.7681 -19.6331 17.8057 -62.6596 -61.025 27.3281 -17.049 -31.4262 -77.1875 111.45
2606 1 -4.76809 -59.9924 -16.3457 -74.8732 103.895 131.894 42.059 -80.3804 6.27392 -378.861 250.11
12185 2 -5.4571 -59.292 -17.6248 -12.3762 -55.3422 -72.2132 4.55187 25.2016 -36.6211 -77.6048 94.0554
17628 2 -3.66251 -58.8964 -15.7921 9.47738 -44.531 -38.5366 -20.4852 29.3657 -14.5072 -79.001 84.2996
5474 1 -4.4755 -57.3594 -20.2969 -25.641 154.325 129.307 -20.6737 72.9836 49.7229 -378.525 230.63
5070 2 -3.92459 -59.1051 -20.221 -31.7326 -82.3912 -60.453 32.3906 -35.2398 -53.1015 -75.3305 131.41
7772 2 -1.75054 -59.9469 -19.9402 -8.99078 -50.5794 -41.3871 -8.70597 -4.90843 -82.6359 -72.8203 149.055
12503 2 -5.88534 -60.1265 -15.2372 50.4108 -86.9239 -65.2471 6.09302 34.6723 22.4076 -79.2268 146.894
15358 2 -1.172 -59.0756 -15.1984 -40.2498 19.1662 -83.5564 -82.4472 -50.495 -37.915 -80.6312 200.832
5152 1 -1.025 -58.5429 -20.1776 -36.196 227.687 90.8395 35.1772 -10.1508 122.608 -377.126 318.385
12572 2 -0.216928 -61.376 -16.4824 -12.0928 -39.8301 -91.1367 -71.3298 8.53452 -53.8502 -82.3842 170.314
10172 2 -0.602147 -57.8078 -18.8425 3.71715 -93.932 -17.8007 -30.2509 -9.19343 -58.8332 -78.7074 145.877
5092 1 0.604839 -57.3757 -17.6997 2.55032 109.834 79.2249 95.3689 90.5656 75.7915 -379.283 279.8
17398 2 2.07454 -57.1902 -18.3765 32.026 -80.0472 -59.6484 -41.9278 -17.2165 -40.4205 -80.266 147.495
15652 1 3.64744 -57.4393 -18.6464 -65.321 115.355 133.523 56.2116 -37.0909 100.592 -366.253 283.23
7671 1 0.0968056 -59.8966 -15.6805 8.53262 -21.2974 207.247 176.269 95.8115 185.624 -371.716 520.024
10366 2 0.732711 -58.7047 -16.7304 -11.2813 3.20586 -76.5435 -46.6277 -55.5283 -102.753 -77.9108 229.916
9993 2 3.92946 -58.5066 -19.7777 5.92345 -38.0825 -78.7124 -26.0531 29.4458 -53.0178 -86.9244 135.814
10268 2 4.87024 -60.0398 -15.7522 6.30144 12.3 -99.3443 59.7679 -25.276 -89.2742 -87.3427 219.94
17976 2 4.49175 -57.9323 -17.3639 -2.72169 -33.8361 -54.0278 -15.0817 26.6592 -42.6471 -84.2708 101.365
14864 2 3.99138 -61.0481 -20.824 -97.5543 47.9011 -99.4061 -6.0461 26.1987 -21.3556 -81.8821 158.01
17654 1 4.76924 -61.5825 -15.2818 -109.329 153.16 151.837 -120.048 58.6605 140.653 -350.64 425.984
12315 1 8.82 -62.6363 -15.1235 46.3459 183.257 149.435 -43.5309 99.9354 -31.9816 -347.603 232.32
12603 1 5.46901 -58.7215 -16.3552 68.0675 -38.6331 116.766 -33.0353 -23.7823 114.119 -361.614 250.985
17838 2 6.73362 -59.4905 -17.0814 -36.4514 -1.6846 -30.2727 7.77941 13.2321 -83.5243 -90.9757 150.558
20053 1 7.69308 -58.8584 -18.1364 77.6136 35.2171 -6.3508 16.8664 -4.41365 126.562 -352.019 232.924
12900 2 9.15013 -59.081 -17.4353 -30.0719 -13.4875 -5.07729 -2.48592 5.1602 -61.8234 -91.0273 109.773
25063 2 7.59441 -59.5712 -19.578 -28.7899 -5.00576 -29.5753 -9.66033 -14.4532 -23.1736 -90.0585 55.7017
10398 2 6.08606 -57.6617 -15.2895 -79.8631 45.6578 -43.0353 -21.4279 7.43842 39.8199 -84.3619 137.075
12595 2 7.28559 -57.2725 -18.1555 -47.4635 -6.18386 -23.1561 0.655405 3.84885 -55.1507 -90.2787 102.284
7563 1 9.83757 -59.7852 -16.153 51.5513 15.0293 74.1608 -55.7978 30.4641 61.5203 -350.955 161.708
22582 2 9.23883 -61.2027 -15.6229 -41.1605 -34.3745 -68.6364 32.1227 -30.2249 -17.5376 -94.6328 88.0135
12387 1 8.28041 -59.8468 34.8494 49.9059 -4.69754 83.5644 50.5636 61.3336 -64.3149 -357.752 193.176
10185 2 9.85619 -60.153 35.0892 -20.9119 8.02502 -30.606 -42.0759 -26.7447 30.1663 -88.5261 106.765
20075 2 15.1891 -62.5358 -18.7483 27.5058 -33.0816 -36.5754 -7.02765 -17.5713 31.2881 -82.6497 88.9155
22465 1 16.4249 -62.0703 -19.7127 -107.637 58.9806 99.1807 -19.3227 -78.5454 -57.4682 -365.307 256.147
24787 2 13.0697 -61.4384 -17.8795 -44.5168 4.15639 -28.98 -15.6159 -42.8607 49.9503 -85.2382 124.828
5286 2 11.3077 -60.1349 -16.5763 -9.10889 -16.7421 -34.2139 30.2045 -32.4586 -4.26083 -89.2396 80.3055
15014 1 12.6801 -59.9158 -17.3286 55.6497 -11.7423 53.2846 -41.0206 21.4055 -35.7353 -362.526 121.002
15083 2 12.4731 -58.6529 -18.3944 -34.8024 27.9862 -26.0515 28.9604 1.48101 -4.3824 -86.9817 77.7808
24877 1 12.4209 -57.5452 -19.5996 30.6744 -53.0093 94.5656 -66.5436 -0.0599236 -17.0019 -359.366 174.88
12780 2 13.8338 -56.7814 -19.7564 -11.0701 5.07889 -35.773 32.2218 -7.70971 8.46142 -87.6363 69.1216
15199 2 13.7901 -59.3691 -16.3132 -1.02935 -19.3582 -33.6494 41.15 48.3432 16.3252 -84.2952 117.016
20066 1 14.7431 -58.9797 -15.0963 -91.5151 112.171 108.041 -72.2574 -82.7239 53.6337 -365.17 292.381
12605 2 16.2377 -59.4236 -15.5136 71.6492 -43.776 -61.4004 14.7325 29.2639 8.56792 -83.7828 138.233
2778 2 14.8442 -57.3586 -15.1364 43.346 -10.355 -75.2747 28.2129 35.6623 -49.1419 -85.9213 155.025
25313 2 16.3313 -60.6253 -20.6231 5.76563 30.0115 -75.5489 -6.85325 29.9001 25.1221 -85.4851 117.846
20070 2 16.4602 -56.3776 -19.6799 6.88351 -30.8575 -23.2189 -33.0598 34.9505 15.7919 -86.829 94.2659
22468 1 19.4242 -61.8587 -18.7909 104.987 -11.6165 49.8751 -20.1242 -157.69 -102.879 -356.838 343.18
22368 2 17.7777 -61.7855 -18.9452 17.8608 -26.8018 -34.8019 -0.558318 66.7356 35.2869 -84.61 139.69
25259 2 21.3981 -61.005 -16.0133 -69.655 60.2342 -64.0134 23.1284 -5.8234 92.0175 -93.8997 208.035
22570 2 20.212 -60.3592 -18.9164 -81.0259 53.5138 -25.9486 14.9981 86.9483 53.4438 -89.7705 213.654
27568 1 21.404 -59.0693 -18.934 126.127 -138.833 26.1394 -31.8254 -111.224 -48.6681 -352.125 317.751
25163 2 20.7164 -57.7417 -18.229 -40.5055 31.6508 4.58859 -16.9596 45.9434 35.075 -91.9547 121.952
24693 2 22.4371 -59.7673 -17.9876 -73.5543 80.7108 -36.723 19.8074 40.726 51.3079 -94.5586 183.092
15152 2 18.0848 -57.4926 -15.0871 44.2943 -13.8767 -88.1532 -3.36201 28.9098 -18.3819 -92.486 129.524
25238 1 22.8254 -60.8412 -16.7769 103.164 -153.766 124.777 -3.52379 -26.9658 -181.68 -344.1 416.263
22365 2 22.0603 -58.2883 -20.262 -98.6634 20.6519 11.8534 36.2241 38.719 4.74512 -89.2042 147.531
27352 1 17.7988 -56.6607 -20.5813 -11.2968 -5.0861 73.8124 64.1414 -128.666 -40.6596 -362.896 271.515
10066 2 18.8339 -60.1265 -15.5223 -20.0569 12.0934 -57.7454 2.79234 -31.7131 80.9544 -88.9564 162.38
12508 1 20.0698 -61.0888 -15.0534 129.874 -135.557 138.481 -36.8053 85.6194 -159.248 -355.094 418.268
12555 1 17.746 -59.1367 -14.8963 -94.4751 52.6601 179.819 -18.4463 9.62232 -6.76212 -356.441 240.756
12690 2 25.4189 -62.6053 -18.9521 -68.1683 65.3174 -56.6541 -5.75619 -14.1255 39.4034 -94.4095 147.546
27640 1 23.0619 -57.0581 -20.7678 115.367 33.8062 -122.407 2.44191 -28.1705 0.402628 -354.783 214.929
27541 1 26.8234 -62.3158 -19.7044 178.35 -177.119 75.6124 -40.0076 41.311 -33.7042 -347.55 337.228
24864 2 23.3767 -62.2749 -17.3827 -33.5598 76.303 -81.022 -30.8186 10.2532 70.2457 -93.4805 193.662
12701 2 23.8005 -60.0636 -15.7406 -45.9089 97.3117 -65.4012 -3.03688 15.6729 81.3869 -97.2593 210.523
297 2 24.0807 -56.7356 -19.511 -70.9887 -10.1168 47.1337 7.79997 -5.93827 41.0844 -94.555 125.778
107 2 26.3671 -58.0821 -19.2887 -40.2272 40.1661 16.6065 -29.3888 -15.42 53.6375 -95.6403 130.612
27722 1 27.663 -59.0023 -19.2625 104.519 -106.116 22.0708 16.2838 15.5997 -115.193 -344.005 274.103
25135 2 27.3347 -60.6608 -19.4318 -82.663 102.117 -32.1583 30.4694 -17.4692 46.2976 -93.5516 193.632
22654 2 28.4196 -58.3709 -17.9738 -8.76352 23.9494 -10.0887 -24.1122 -6.98609 41.7228 -97.7792 90.7096
25062 2 28.5331 -58.5557 -20.5081 -49.9745 29.8722 -9.96996 -3.08718 18.5744 31.4561 -94.0147 93.8813
20268 2 24.5426 -57.6547 -15.0605 -44.0069 89.4319 -34.8278 1.62173 -6.18566 37.9894 -106.656 145.319
266 1 25.589 -56.6625 -18.9773 81.5054 -11.0074 -109.201 36.6202 27.7158 -86.3979 -339.421 236.656
2519 2 34.776 -59.1989 -19.3774 -33.0656 77.2906 -71.2201 -18.145 -30.127 17.2679 -95.1344 149.833
2565 2 34.1023 -62.0643 -17.3109 -64.9323 70.3581 -2.24965 -23.2294 -21.072 22.9777 -95.352 135.23
164 2 29.5553 -58.6232 -15.7319 12.9721 18.5179 -7.70754 -43.3274 -5.9938 -15.0529 -98.6211 83.6207
2712 2 32.4455 -61.609 -19.3064 -32.7293 61.3781 -51.9304 -17.1338 12.8457 46.4586 -93.6996 137.415
2416 1 29.4715 -57.5559 -17.0064 -65.5383 12.8946 15.1139 77.9879 35.425 -2.62384 -336.092 168.412
27364 1 34.5235 -58.4208 -17.9606 48.6353 -98.4563 72.2686 32.025 44.5562 27.7536 -340.014 192.39
24665 2 32.7077 -61.7803 -15.3842 -52.5138 70.3631 -13.6831 -10.4864 -36.3745 6.34276 -95.651 127.495
20074 2 33.8674 -59.5819 -16.9426 -55.1743 47.7085 -15.461 -36.495 -35.5451 -13.2448 -98.4467 128.018
24867 1 33.9209 -60.9256 -16.076 110.475 -117.318 -1.60265 59.1068 72.3164 -17.2597 -340.016 256.874
7987 2 30.9626 -57.3148 -17.6179 41.3951 -20.6867 -29.1384 -19.5645 -24.4685 -22.399 -98.5397 94.3391
4907 2 33.4894 -57.247 -18.3396 -29.1419 34.2339 -43.4651 -13.8747 -19.693 -33.8931 -97.5961 101.571
25035 1 31.8745 -60.8829 -20.7429 -3.24879 -139.869 236.728 67.5425 -53.1102 -126.884 -351.875 423.658
11 2 30.6338 -59.8122 -20.8752 8.68619 53.0025 -104.557 -22.4343 42.6849 39.2454 -91.3203 177.209
4876 1 34.4766 -59.0952 -20.9343 83.3535 -218.349 182.952 22.9061 105.41 0.661501 -353.804 407.311
7176 2 33.0946 -59.9414 -21.277 -27.5456 69.3131 -111.561 -25.3504 -7.66332 38.1223 -89.5113 176.187
5565 2 -22.6834 -55.9062 -16.3458 -6.48554 131.494 -91.8465 30.1887 -38.3788 31.6414 -95.2308 219.68
142 2 -19.7411 -56.0319 -19.3506 -83.2371 95.5255 4.78824 -11.0098 -15.0602 6.12882 -95.3557 158.511
2697 2 -24.1124 -55.4971 -20.8074 1.60749 34.3341 -36.0713 8.52987 -15.6377 -48.0799 -93.3404 107.753
27839 2 -21.6 -54.615 -20.1818 -48.1949 56.3562 -1.79679 -2.86589 9.26538 26.9322 -95.3999 103.397
392 2 -24.5315 -54.4445 -15.4768 -16.2847 115.31 -103.314 93.9874 -3.76315 2.62135 -97.2233 250.814
3051 1 -20.0404 -54.551 -19.8752 157.598 -172.233 -22.3877 -29.6852 50.9903 -50.9932 -342.511 316.327
2810 1 -22.994 -54.3461 -16.0058 27.5958 -255.274 154.264 -84.9045 46.955 -63.1529 -336.346 414.845
491 2 -23.1651 -53.2905 -17.1902 -50.7361 81.0453 -20.1702 38.5827 -18.4878 23.9886 -100.907 146.595
2791 2 -23.8956 -51.1252 -18.7147 0.241097 0.560781 51.527 3.79556 37.6699 -5.53144 -102.339 83.702
103 2 -21.4656 -51.6679 -17.7586 6.18697 32.2561 20.4256 -15.3436 -30.6503 16.982 -105.762 70.0066
2692 1 -19.8879 -52.121 -17.7375 22.7078 -74.3122 -30.5529 11.1506 62.6397 -37.7838 -325.906 153.327
3075 1 -23.012 -51.7314 -17.5256 4.48485 -71.2793 -34.668 -4.29408 -20.8939 0.199628 -324.165 75.3119