ITEM: TIMESTEP
520000
ITEM: NUMBER OF ATOMS
29952
ITEM: BOX BOUNDS pp pp pp
-2.5137656184913688e+01 3.5122950527621192e+01
-7.7151075499540752e+01 8.7136369841540755e+01
-2.1027784689789229e+01 3.4895637835931232e+01
ITEM: ATOMS id type x y z v_StrAtomXX v_StrAtomYY v_StrAtomZZ v_StrAtomXY v_StrAtomXZ v_StrAtomYZ c_PEAtom v_VMS
2433 2 -9.33616 -72.4865 -20.3868 -260.811 396.338 -329.705 3.95298 105.43 -149.811 -48.7195 763.274
27467 2 -21.4322 -66.9975 -18.9698 -119.82 139.067 -146.834 49.0649 -189.571 43.515 -95.8988 442.109
9992 2 -21.0071 -66.6654 -16.2276 -170.265 117.676 23.0482 0.208855 -140.344 -44.5456 -75.7579 360.083
9781 1 -21.1254 -66.1502 -17.5573 214.054 -77.2918 121.433 2.08205 387.355 -84.0391 -343.978 733.355
4801 1 -20.5631 -65.9882 -19.8796 119.931 7.33774 113.923 40.0083 338.218 -228.852 -309.236 719.119
4530 2 -19.7733 -65.5488 -18.3647 -75.6571 -75.2436 -53.6142 -26.9878 -142.283 111.465 -109.161 317.283
4713 2 -21.9785 -64.8062 -17.8359 -3.40419 -75.4049 -23.0602 -58.1087 -230.407 124.422 -109.111 469.031
5277 2 -21.6646 -64.8399 -20.192 -5.10839 -45.5999 25.1869 -75.1351 -131.569 103.2 -116.037 323.422
7219 2 -14.1486 -68.1414 -17.4246 -81.8672 86.2882 -25.6949 -4.37115 35.3603 -55.7829 -57.2483 187.429
7407 1 -13.5443 -66.7404 -17.4713 15.1202 173.182 -65.9348 94.3659 -137.787 -88.0303 -390.859 388.952
4976 2 -16.7431 -66.1307 -20.2281 19.889 -38.0319 -2.60451 -29.9105 -105.65 120.336 -111.199 286.652
10150 2 -14.6762 -65.8146 -18.2638 74.1708 -129.423 32.3641 -54.3277 70.6334 104.56 -86.8787 302.169
9890 1 -15.9073 -65.3366 -19.0547 -173.913 211.591 -68.8832 52.3302 24.6327 -280.135 -331.746 603.836
29850 2 -13.1446 -65.9841 -16.0614 -26.2412 -129.895 57.8304 -43.7995 37.3669 48.1851 -71.4117 208.413
5178 2 -12.5844 -67.3952 -20.7813 100.04 -5.99936 -199.131 -98.4815 123.612 55.5928 -98.4838 391.447
2409 2 -7.44924 -68.4872 -20.2233 -13.9328 -64.1189 -73.4275 -8.84812 184.522 36.0236 -85.2541 330.675
5072 2 -10.0882 -67.7255 -19.8382 -7.88295 -17.6148 -102.563 -76.9853 157.974 95.524 -89.2009 357.993
29490 2 -7.26139 -67.3543 -17.0717 -64.747 -39.7051 -107.762 -87.763 145.382 60.1454 -89.1344 317.682
9794 1 -11.5218 -66.7996 -19.705 -78.4477 72.6723 154.985 163.649 -268.175 -233.205 -349.794 708.027
2614 2 -12.2004 -66.685 -18.3519 -7.88245 -83.0775 -5.81242 -58.4493 117.49 87.9039 -81.7342 284.001
9702 2 -8.45414 -65.5321 -15.5013 27.6164 -103.687 -148.124 -130.969 45.8322 55.0475 -91.8949 303.151
4989 2 -11.0383 -65.3051 -20.1444 66.218 -77.0514 -41.5545 -21.1233 145.232 124.455 -99.2251 357.468
9891 1 -7.31577 -65.8612 -16.5618 27.8043 99.1603 224.487 225.441 -235.807 -37.892 -341.772 594.418
24962 1 -12.3957 -65.1599 -14.9451 22.8749 302.246 -105.206 119.842 61.563 -92.4994 -381.351 458.65
12490 2 -7.0791 -64.7891 -17.6857 31.2468 -48.0479 -27.0424 -85.7016 109.515 6.08177 -96.6594 251.375
12352 1 -8.93262 -68.4306 -20.7129 -1.6696 66.0024 332.502 103.05 -293.222 -90.7917 -353.494 638.874
14617 1 -6.30534 -68.0415 -16.0101 184.893 -30.6173 475.843 114.512 -200.475 -56.0045 -361.539 602.593
12453 2 -2.35435 -68.9941 -17.4827 -108.806 97.335 -181.689 -27.392 113.773 -13.3893 -76.4578 323.19
9954 2 -4.70869 -68.5819 -19.2716 -104.977 -33.0786 -52.0505 -1.54155 126.081 -20.3814 -80.8288 230.451
12787 2 -5.02311 -68.7036 -16.6556 -116.46 52.9421 -210.732 -48.6073 116.882 19.6682 -83.1382 320.604
12351 1 -3.87297 -68.5091 -17.8373 160.843 -10.07 251.358 21.749 -223.603 4.07437 -368.658 452.037
9962 1 -1.82382 -67.5883 -16.7601 85.5684 48.4257 172.737 -22.3957 -229.296 18.4129 -360.318 415.292
4678 2 -3.28351 -67.0379 -17.4061 10.8363 -54.882 -56.0007 21.0838 84.5525 -10.6539 -91.2482 165.877
4806 2 -5.94314 -66.3501 -15.5492 5.3639 -67.3533 -228.211 -80.7196 119.115 43.0689 -96.9484 332.471
7575 1 -1.76896 -65.0397 -19.9682 12.1048 229.196 -163.776 -48.5387 -125.762 68.7085 -337.858 430.028
7478 1 -5.8577 -68.6946 -20.5479 95.5902 123.578 93.4038 -52.5378 -298.637 44.703 -371.504 531.674
14972 2 -0.912465 -66.3262 -20.1485 -68.3525 -85.2538 32.2827 26.0726 66.7515 -79.3716 -93.2093 215.453
14892 2 -2.1064 -64.362 -18.5458 6.88944 -86.3188 70.1394 -4.7611 59.973 -19.5563 -96.4356 174.898
2310 2 -2.97688 -64.9065 -21.0312 39.8217 -137.946 83.7007 36.7722 63.8852 21.5235 -98.6745 242.935
7125 2 -0.522636 -66.6961 -17.1069 -54.6345 -68.5979 -0.875595 21.5658 112.324 -38.7794 -89.3841 218.157
14778 2 2.04389 -66.3068 -16.2887 -37.9587 -97.7076 -2.17982 36.4301 181.446 -18.3158 -84.2919 332.782
14859 1 0.652246 -66.0307 -20.5024 146.642 183.528 -58.4606 -7.06405 -178.789 109.26 -346.591 427.612
17368 1 0.879784 -65.8564 -17.2663 73.8959 207.86 -109.899 -65.6294 -298.474 77.1746 -356.675 611.881
9917 2 1.04749 -65.5589 -18.9255 -58.0337 -112.013 78.602 30.2476 122.226 -59.6306 -91.437 295.276
14797 1 3.13971 -65.8451 -15.2333 35.5264 227.935 27.8274 -95.5172 -334.684 67.3568 -362.957 644.657
19795 2 4.13434 -64.7805 -15.9688 42.2499 -132.264 2.7364 88.1933 123.614 -64.6989 -84.7961 326.885
10389 2 2.09453 -66.7022 -20.8476 -67.7136 -40.556 -48.4119 -39.2347 86.697 -35.001 -83.9715 177.28
17154 2 4.77034 -65.8306 -20.8083 82.7035 -148.704 -105.371 -6.79761 164.046 52.9164 -78.3914 366.977
14723 2 0.669832 -64.3645 -16.6534 3.68193 -104.05 78.8868 19.824 138.184 -25.3663 -92.0817 292.844
10078 2 8.08386 -68.7096 -19.7968 -73.9498 192.799 -218.619 -41.6925 176.149 39.1877 -43.4077 483.303
14857 1 8.25268 -67.3204 -19.2221 2.40096 -3.4852 360.948 120.431 -395.998 16.6813 -416.088 803.423
12437 2 8.73328 -67.2789 -17.6271 11.848 9.55153 -201.626 -55.6384 146.996 -33.5092 -65.1212 350.093
14925 2 6.97118 -66.3543 -19.5415 46.4284 -106.042 -122.266 -27.6177 192.829 1.1891 -67.5446 373.932
17568 2 9.45904 -66.3991 -19.9681 -4.26519 -111.781 -148.467 -124.132 210.485 13.9692 -68.6424 443.366
17017 1 9.92516 -66.3555 -17.2195 -24.2887 125.39 274.417 206.479 -296.244 0.516545 -375.33 676.833
14771 2 10.6207 -65.9674 -15.7167 -2.46426 -29.7997 -87.7601 -91.5119 109.742 9.89172 -89.3335 259.302
22306 2 11.1555 -67.1735 -17.7655 -77.753 0.535832 -171.952 -90.4713 112.447 14.2689 -79.5052 292.363
19580 2 9.21143 -64.8787 -17.4747 58.8707 -109.604 -88.4295 -144.78 161.502 0.159228 -82.6174 407.919
22359 1 6.32825 -65.5253 -20.7354 -158.557 355.437 255.302 13.548 -395.664 -150.244 -382.184 872.162
22264 1 10.1501 -65.1422 -20.6726 -78.9852 292.639 312.331 190.556 -341.469 -2.82224 -393.147 777.543
22844 2 14.4756 -69.4491 -15.1869 -332.305 204.404 -57.7727 -18.13 -28.945 36.2843 -86.032 472.79
17470 2 13.4638 -69.1226 -17.8748 -245.485 172.707 -144.612 -15.5623 -7.6558 76.5872 -74.4045 401.715
19958 1 14.5257 -68.737 -16.6302 513.464 -280.686 154.891 47.6998 101.94 -74.9185 -363.864 727.549
22474 2 16.0293 -68.4778 -17.1726 -214.916 116.152 -73.8439 -1.05807 -123.022 24.8935 -82.7567 360.65
22261 1 12.6213 -67.759 -17.9149 303.427 -120.444 283.351 124.274 -79.4357 -65.5118 -372.188 499.697
4641 2 13.5043 -67.395 -16.556 -174.778 62.6753 -50.4337 -61.2361 8.77271 14.9096 -92.8397 233.381
17771 2 13.3011 -66.8304 -19.0761 -79.808 -10.3202 -115.243 -51.7766 -21.0359 26.8347 -80 141.692
27850 2 16.2462 -66.2046 -18.4434 -117.721 5.28505 -49.2302 38.9373 -123.41 18.7645 -88.3492 250.382
24758 1 16.0036 -65.2586 -19.7799 228.23 -93.1032 184.154 -24.5743 245.992 -15.4263 -368.778 524.496
22575 1 13.0803 -65.2346 -19.2866 32.0893 88.4985 231.51 62.6552 -5.69498 60.5696 -374.035 233.628
15274 2 11.6821 -65.0671 -20.04 44.513 -99.4972 -139.618 -69.9236 107.107 -40.0001 -72.9644 286.374
14888 2 14.4634 -64.8048 -19.924 -58.7761 11.1615 -113.227 -1.03601 -77.0248 -39.5959 -77.9236 184.85
22372 1 17.0705 -67.5842 -18.018 377.724 -154.793 117.23 -80.633 229.293 -59.6245 -368.9 632.938
452 2 16.7692 -66.1627 -20.8758 -220.24 22.8131 -53.53 27.4925 -125.19 73.0691 -80.3381 334.141
25147 2 17.3023 -68.2002 -19.4737 -278.609 105.851 -85.5809 9.34663 -129.578 49.5229 -76.5478 410.912
12646 2 18.4535 -67.2051 -17.2968 -125.601 68.0794 -114.639 57.8322 -51.9568 41.4969 -79.6403 242.502
22467 1 19.4651 -65.8906 -17.0364 95.2812 10.2105 188.711 -232.324 41.3441 -50.1438 -372.139 445.543
22458 2 20.039 -65.5575 -18.5297 -46.3753 -13.616 -92.4522 139.551 -27.0208 4.5415 -77.1521 255.698
24945 2 20.5709 -65.5312 -15.8095 33.6419 -9.13441 -146.673 132.381 -4.63608 29.2859 -80.7291 286.08
27239 2 22.5989 -66.3235 -20.5417 76.0006 57.3464 -234.958 54.5398 -5.50296 86.7041 -62.8093 350.442
8 2 18.4179 -64.6481 -16.7481 -6.95449 -70.049 -50.9849 108.514 -43.4819 -1.94668 -89.1721 210.12
25056 2 19.7627 -65.0123 -21.1847 -112.922 56.8957 -151.649 117.522 -55.9 75.5892 -76.5813 323.828
22443 1 17.4915 -67.6334 -20.9538 603.641 -97.925 103.482 -80.9241 228.816 -189.218 -379.47 821.941
15000 2 19.0631 -67.3678 34.7386 -218.392 55.6724 -121.212 43.8027 -87.3447 83.2416 -73.9544 327.647
22280 2 26.0085 -66.0088 -20.2848 -45.2274 78.584 -219.836 39.06 25.5867 101.002 -81.3473 323.39
19788 2 28.1795 -65.6632 -18.1496 -164.776 116.192 -145.706 5.49041 -41.2605 48.8371 -103.894 293.772
15146 1 27.1443 -65.2468 -19.3529 171.854 -103.118 294.066 3.85259 52.3141 -126.657 -337.274 424.889
27770 1 29.5152 -65.2508 -17.4911 267.951 -217.209 198.42 3.38014 95.5426 -143.229 -312.671 543.548
24966 2 30.1024 -65.2708 -16.0516 -135.004 110.21 -73.8514 29.6864 -36.1166 65.9874 -108.839 261.714
29827 2 32.7495 -64.7211 -15.7229 -12.5824 22.8936 -66.0161 39.0903 -73.1173 68.5377 -108.668 201.802
27669 2 -24.6593 -64.4574 -15.0393 -38.5417 -61.5083 25.6628 39.9106 -168.769 33.0864 -101.063 315.652
2679 1 -22.4742 -63.9308 -19.0465 -39.4228 138.178 -66.4244 201.296 388.877 -183.462 -302.219 844.557
92 2 -19.4089 -63.7921 -16.6548 7.78513 -182.924 123.357 -4.40657 -58.7659 184.721 -103.02 429.595
22462 2 -21.7533 -63.7934 -14.985 29.6202 -158.402 127.597 -18.2446 -110.003 101.581 -95.564 362.809
27294 2 -24.0482 -63.7313 -18.8686 23.874 -71.946 75.4795 -44.3306 -216.26 79.0819 -111.022 426.323
29859 1 -20.199 -63.2893 -15.3551 -99.0708 404.273 -333.638 49.378 117.064 -311.979 -339.956 875.708
29928 2 -23.5149 -62.8618 -16.4586 24.7205 -127.486 58.7735 -10.3947 -197.665 118.025 -114.89 434.555
2593 1 -24.6048 -62.7161 -17.7041 -117.675 215.949 -177.847 47.7554 428.466 -113.279 -303.836 855.038
7461 2 -21.9589 -62.4241 -19.4407 36.6515 -103.776 90.4279 -132.444 -144.368 73.8199 -119.278 402.072
2576 2 -20.451 -61.7011 -15.5793 99.0788 -161.883 123.026 -35.6025 -63.9484 169.226 -104.858 420.603
7569 2 -24.484 -61.175 -18.0238 28.2945 -73.5698 145.279 -56.7229 -153.847 36.4843 -117.028 347.319
25058 1 -21.1681 -60.2267 -15.5315 -165.994 206.644 -214.932 -7.70527 168.301 -240.923 -317.271 647.128
5142 2 -22.3103 -60.126 -16.6491 28.4028 -64.7032 118.428 13.3381 -103.313 117.634 -113.941 314.996
2581 1 -23.7024 -59.8685 -17.3904 -8.48185 56.9933 -294.007 64.1214 215.695 -142.303 -303.373 563.174
2392 1 -23.5904 -59.022 -20.3402 21.032 -22.4075 -296.466 162.385 138.987 -134.03 -307.139 529.01
29779 2 -20.1316 -59.0486 -15.7861 108.047 -79.9271 76.5866 25.2919 -90.9023 74.9513 -105.255 271.978
4948 1 -23.3505 -63.5211 -15.0035 -5.76884 261.701 -199.129 -50.0213 298.837 -148.63 -326.742 708.757
27440 2 -19.9925 -61.3132 -20.5917 118.078 -16.9342 58.4422 -39.8143 -101.543 60.1961 -115.278 245.545
249 2 -24.5893 -59.1313 -16.3361 41.0669 -16.4529 117.699 -30.6202 -82.7861 56.6511 -115.493 215.848
2572 1 -21.573 -61.4151 -20.6704 -156.269 100.382 -208.807 208.529 178.052 -87.3163 -300.304 574.932
29864 2 -22.4146 -60.0099 -20.6826 37.1627 -23.8748 130.577 -82.8812 -74.8825 59.9503 -114.68 257.616
7764 2 -18.9478 -63.2843 -19.1685 57.1972 -78.7588 26.0944 7.05892 -134.142 136.31 -118.677 353.689
24666 2 -23.5329 -59.0022 -18.7106 -5.64547 8.65919 152.853 -51.5274 -80.4992 56.0838 -112.922 244.747
448 1 -18.66 -62.1498 -20.2559 -152.52 40.7949 -116.021 11.156 230.867 -209.584 -299.024 568.943
4 1 -18.6976 -64.3425 -17.9886 -18.6977 279.82 -87.3264 -20.2861 169.814 -329.785 -314.914 726.862
4987 2 -17.2044 -64.8519 -18.1175 41.914 -136.581 54.6404 -3.19007 -38.1326 143.031 -101.893 316.323
119 2 -15.4084 -64.0278 -19.8827 106.018 -85.1341 44.8945 -1.40288 -2.05969 175.923 -111.015 348.506
27450 2 -14.424 -61.7713 -15.28 89.9069 -193.146 125.438 -19.388 3.79892 48.8979 -94.0612 315.884
2671 2 -16.0874 -61.433 -17.3092 75.4588 -135.147 101.416 46.1675 2.46328 151.406 -103.279 354.513
7432 1 -15.935 -61.392 -15.6844 -142.059 367.739 -292.732 -58.8043 8.76293 -171.031 -339.633 676.585
2219 2 -17.5299 -61.2225 -19.5174 52.7179 -8.80595 63.2847 30.5521 -46.9882 156.655 -112.159 295.962
4904 2 -15.035 -60.6836 -19.7577 85.4947 -57.4391 41.0302 28.839 20.8538 158.84 -107.263 309.098
4887 1 -16.2545 -60.7044 -18.7549 -143.065 95.8277 -150.895 -64.9312 -9.73521 -348.814 -319.491 661.02
2669 2 -16.0138 -59.8545 -15.2485 67.7935 -133.568 133.522 23.3774 -19.7517 69.1789 -98.7664 274.352
275 2 -16.5541 -59.0662 -18.6286 41.4867 -7.35914 34.6649 12.191 6.75653 108.582 -106.267 195.07
5090 1 -13.5092 -60.7514 -20.1656 -178.023 141.071 -143.47 -27.3223 -60.9656 -313.047 -324.85 631.96
27563 2 -13.8942 -58.8188 -16.5051 108.849 -103.372 23.8884 16.0535 16.1252 85.1667 -102.38 239.873
10064 2 -13.49 -62.3135 -20.6635 115.372 -78.895 42.5605 25.9022 55.7963 162.593 -108.722 345.772
5273 2 -8.95928 -63.8059 -19.1878 87.4011 -106.181 -10.2312 -37.1202 127.479 93.7621 -97.4813 327.668
7275 1 -12.8512 -61.9879 -15.1321 -189.308 326.008 -197.802 69.0277 -5.0987 -76.4904 -349.041 549.476
7687 2 -12.5711 -60.8023 -18.9267 84.9051 -106.309 43.7245 -15.2294 80.1616 167.036 -103.058 366.143
7489 1 -10.4771 -63.8437 -19.716 -194.085 160.071 -9.38879 82.1119 -282.875 -239.36 -335.624 725.459
14955 1 -7.65606 -63.4009 -18.3362 -158.584 181.773 1.64018 103.361 -175.412 -81.5444 -339.739 480.924
4723 2 -12.5944 -63.5151 -15.145 45.7804 -172.037 90.5204 -57.709 -10.9874 43.5208 -87.1288 274.275
7474 2 -11.4184 -63.1558 -18.6133 95.8086 -101.699 21.5549 -56.7425 113.196 139.449 -99.2672 369.181
7535 2 -8.04091 -62.4431 -17.116 69.5467 -59.2893 -41.6181 -78.5691 76.4892 73.2166 -99.2979 258.433
4898 1 -11.5772 -61.6582 -18.1001 -203.94 225.666 -42.3937 88.8971 -184.02 -296.57 -332.557 728.297
7694 1 -8.14272 -61.4065 -15.8792 -146.526 125.548 67.878 152.353 -125.139 -145.129 -337.716 491.386
12298 2 -12.1275 -61.6336 -16.5099 108.455 -140.385 48.1536 -41.0924 38.7088 84.0454 -98.0759 285.139
7481 2 -10.2409 -60.8265 -18.3292 95.8158 -80.4793 -11.7294 -31.1267 87.8353 131.291 -100.413 318.512
12390 2 -9.09978 -60.2057 -16.231 68.8403 -51.502 -42.1803 -55.5197 56.2962 70.3901 -100.407 216.949
10192 1 -9.79797 -59.5136 -17.5007 -171.579 61.0685 134.549 21.2694 -119.441 -195.23 -332.031 484.892
7506 2 -8.70529 -58.7296 -18.4098 62.648 -23.6688 -48.3729 2.84134 9.73018 67.6893 -97.3211 155.715
29770 2 -6.72192 -60.7677 -15.5027 83.3118 -72.071 -53.2294 -62.8788 78.5239 59.1805 -95.527 249.875
19 2 -11.1738 -58.7589 -17.2628 100.789 -49.6768 -73.1179 6.50367 60.3142 98.1305 -103.075 258.158
17111 2 -6.53344 -62.6912 -19.2686 114.248 -134.772 25.0188 -18.8154 25.9383 39.7014 -95.2655 235.715
14850 2 -10.4947 -62.8346 -21.0272 108.899 -102.655 29.0335 -8.21179 88.1261 81.5966 -101.262 278.77
14939 2 -3.53937 -63.6043 -16.2853 95.9418 -63.5326 -12.2859 -25.3639 86.8837 -4.82115 -95.0995 211.026
9806 1 -2.48987 -63.2515 -17.499 -98.253 187.777 -131.583 35.2196 -117.034 17.713 -344.977 371.767
7572 2 -2.94757 -61.9667 -18.3358 72.9769 -104.024 26.7067 -15.0207 28.4644 27.5336 -94.7551 175.106
7633 1 -5.72745 -61.9736 -20.4002 -241.244 311.919 -90.0947 58.4843 -51.2227 -83.4141 -347.256 533.133
9775 2 -4.72792 -60.8693 -19.7521 103.877 -115.382 20.4091 -20.1644 25.8354 66.917 -92.0066 231.076
10189 1 -3.41042 -60.5395 -18.8885 -184.792 167.499 25.5988 10.9664 -6.47297 -142.198 -351.076 394.21
4830 2 -2.25089 -59.9685 -19.8393 64.2426 -73.0498 4.17712 32.2166 -1.41213 57.6717 -91.7178 165.252
10079 2 -3.78761 -59.5706 -17.6719 92.79 -40.2841 -53.2018 -8.68007 24.1945 79.4871 -89.6669 201.324
5388 2 -4.80968 -59.111 -15.3427 126.81 -47.2961 -26.5727 5.02865 93.5592 43.3659 -88.1838 243.129
7376 2 -1.16325 -62.7843 -16.7371 26.2571 -93.9947 85.1993 12.7633 100.03 -4.47499 -93.1911 235.774
10070 1 -0.975414 -60.2007 -20.7589 -46.5741 113.794 -59.8883 -135.924 -72.9124 -45.4651 -341.276 324.971
25250 1 -4.64691 -58.5114 -16.901 -254.499 64.8031 171.028 -9.34115 -98.1207 -111.576 -355.437 462.221
2214 2 -4.91275 -63.0741 34.6903 101.191 -140.461 50.836 -31.9635 23.0993 43.5124 -95.6158 243.123
7352 2 -0.645303 -64.0282 -20.6028 -13.2809 -103.148 50.7286 36.6654 73.201 4.54245 -103.711 195.182
17646 2 4.53656 -62.9166 -17.8478 81.7113 -136.905 2.40432 79.8516 162.874 -25.6282 -87.6032 370.713
12279 1 0.400703 -62.7484 -16.5935 -61.6857 178.588 -215.273 -71.8163 -220.817 26.7245 -352.793 531.149
5180 2 0.8738 -62.2104 -17.9902 21.7285 -79.048 82.6823 63.4495 108.671 -17.5556 -92.2878 261.619
14990 1 4.34285 -62.0019 -19.1933 -227.471 203.858 77.6113 -133.839 -430.52 -19.4769 -357.486 870.888
12294 2 1.07145 -61.8921 -15.3787 34.9658 -76.3864 92.67 31.0209 120.391 18.2932 -89.1668 263.68
9814 2 3.00387 -61.1394 -19.242 65.2411 -65.8103 -21.8761 70.2889 193.33 0.71033 -91.5841 374.565
22456 1 1.43915 -60.9208 -18.8187 -37.3141 99.4516 -62.5192 -140.15 -256.306 -22.6741 -347.871 529.466
22353 2 0.313346 -60.4151 -19.8208 -8.55854 -61.8262 18.7309 85.4938 76.47 36.4448 -97.3498 220.207
7414 2 1.59889 -59.7704 -17.6556 31.2833 -47.881 51.4494 65.7243 98.7451 33.2593 -88.8268 231.947
19853 2 4.0803 -62.7332 -20.5158 107.33 -85.4339 -79.4004 44.8367 232.122 42.0564 -89.1074 457.176
17289 2 4.92599 -62.2475 -15.4182 51.8844 -99.1021 25.518 63.3013 76.8403 -50.1461 -90.1869 238.305
9878 1 5.04375 -63.5277 -16.4749 -147.749 256.979 -4.70875 -171.407 -222.551 114.534 -361.45 634.393
24776 2 1.47602 -62.6991 34.8427 -22.9856 -34.1365 -18.1713 65.4254 148.559 20.7101 -102.336 283.794
15082 2 6.61084 -63.8932 -16.5581 92.3915 -122.335 -32.8763 -9.30421 102.821 -34.1434 -84.7301 265.283
19299 1 8.17873 -63.5842 -17.2284 -137.553 144.11 102.355 225.903 -294.478 22.2446 -364.47 695.737
14987 2 9.07791 -62.7338 -16.2956 79.6321 -28.7132 -53.2674 -106.9 150.946 -46.0857 -88.4135 352.152
24768 2 7.7314 -62.5119 -18.2853 8.56572 -38.9057 -73.6031 -20.1009 119.552 -20.5814 -86.4803 224.645
12369 2 5.7152 -61.0705 -19.1478 81.072 -40.7549 -86.8414 98.2529 170.719 -22.6677 -87.7735 374.857
15050 1 7.30427 -61.1728 -19.1133 -22.783 -49.068 229.743 -195.971 -196.335 78.5008 -360.73 566.075
22259 2 6.46201 -60.1169 -15.8615 15.3295 -37.2881 -20.252 53.2975 54.0556 -84.0802 -93.9592 201.64
4892 2 7.73268 -59.8578 -18.2976 18.0507 22.4215 -86.5064 140.465 49.7118 -109.44 -92.544 337.557
17474 1 6.96564 -59.1188 -16.9489 -81.3659 31.161 87.6686 -198.686 -82.7734 210.05 -344.031 541.811
19967 2 9.23855 -63.7748 -20.3549 18.5364 -65.4734 -174.424 -41.0752 148.849 -0.315039 -76.5226 315.611
15156 2 7.85118 -61.5847 -20.5852 -26.5447 62.2342 -180.929 109.544 78.5785 -10.9856 -78.9625 316.713
25258 2 6.73665 -63.9515 -20.616 70.655 -129.807 -129.701 -4.75273 177.653 92.7881 -81.6022 400.927
15049 1 8.05217 -63.0752 34.7675 15.7386 59.2669 363.145 -56.6041 -268.22 -83.2983 -381.942 594.741
19661 2 12.7732 -64.5212 -17.863 -29.4401 -42.6539 -62.7582 -12.0806 25.6516 -40.2148 -88.8224 90.0442
24858 2 12.959 -64.1753 -15.2637 -67.7724 10.7837 -56.2398 -37.7992 17.0845 -22.3009 -104.33 109.782
17699 2 11.4679 -59.0728 -15.9167 12.5756 26.9099 -8.12494 -35.864 49.7309 -264.256 -92.7836 470.853
19792 1 13.1926 -63.4503 -16.7927 90.6543 -50.3378 52.6822 20.1927 26.6043 111.651 -347.942 238.142
14781 2 14.7666 -63.1745 -16.8552 -67.0759 11.1201 -17.2106 12.3306 -85.5943 -86.1026 -93.3177 222.212
20345 2 12.3522 -62.1343 -16.8252 10.7963 103.715 -32.7373 -66.7923 25.8012 -133.961 -86.5808 289.467
10358 1 15.9579 -62.0483 -16.5481 82.2151 -1.03837 4.10674 19.7328 185.285 265.736 -358.294 567.923
17460 2 15.3451 -60.7962 -15.7566 -71.0129 52.3451 12.3427 -19.209 -44.1642 -137.794 -86.7762 275.322
19680 2 16.878 -63.9698 -19.5574 -104.855 102.491 -100.595 38.9969 -104.594 -69.9607 -83.6399 306.908
102 2 16.8507 -61.9452 -17.9751 -38.1584 18.4211 -15.6955 -2.02287 -102.562 -205.189 -83.5139 400.39
12377 2 17.0106 -62.7706 -15.5406 63.2383 -82.1684 -21.5619 28.661 -50.1244 -42.408 -90.84 177.202
22274 1 20.1546 -64.4891 -19.7053 47.1544 1.39569 201.501 -273.755 97.7352 -25.3751 -376.326 537.022
20174 1 21.0042 -64.1144 -15.1359 -172.906 177.426 181.999 -381.217 14.8631 -46.9643 -356.906 753.402
24880 1 18.0431 -63.9313 -15.3196 -174.809 190.961 84.3368 -216.097 106.123 11.3237 -351.24 529.548
20003 2 21.639 -63.8232 -19.6681 85.2378 -54.716 -137.776 98.5781 -3.36737 27.0024 -78.7913 263.6
22571 2 21.6363 -63.2549 -16.3647 93.1083 -119.148 -24.5801 186.406 -17.5837 -13.8137 -88.6157 373.718
14430 2 19.2001 -63.278 -19.1588 -26.3042 14.0357 -84.9484 100.598 -39.9166 -105.914 -83.5675 276.089
24843 1 17.7212 -62.657 -19.1781 113.491 -138.639 174.645 -57.4084 171.134 360.874 -367.417 755.755
17391 1 22.4061 -62.0407 -17.1773 -182.303 249.933 -57.8206 -198.029 -2.69111 78.7752 -352.438 533.669
5093 2 21.6069 -61.2728 -18.3375 56.1491 -54.3464 -2.01967 59.342 78.6184 -105.813 -86.5452 268.07
24960 2 22.6898 -60.9181 -16.0188 61.5157 -85.9365 30.6059 54.167 -20.1514 -60.7808 -98.8473 198.099
15147 1 21.5574 -60.8306 -19.908 -95.4585 -10.4462 178.125 -11.7893 -224.589 318.699 -362.698 717.817
27392 2 22.4359 -59.5092 -20.1446 70.4241 -43.206 -27.1252 -15.6868 119.025 -157.375 -90.7432 359.003
17884 1 22.0175 -59.7494 -15.1145 -70.2369 38.8962 -36.4889 -5.63393 73.4159 217.986 -337.995 410.104
20057 2 20.0219 -60.4866 -20.3094 15.4437 25.2113 -122.324 3.31939 92.6937 -208.493 -87.1333 420.284
22661 2 21.2469 -58.7014 -16.053 9.90547 30.3587 47.9987 -49.6371 18.5268 -148.439 -90.2644 274.979
2421 2 22.2888 -61.9015 -20.9047 50.4332 23.1622 -155.581 -19.8529 86.9242 -103.594 -80.302 305.961
22743 1 22.7131 -63.4974 -20.8482 -204.873 68.8885 439.711 -12.8691 -89.5718 -114.383 -380.98 614.644
9996 2 18.681 -58.8818 -16.5744 104.155 46.3329 85.4558 31.913 38.3203 -146.01 -75.1875 272.083
17576 2 17.8002 -61.718 -20.5664 -87.964 127.503 -141.606 -18.7655 -48.9532 -228.08 -83.5457 474.52
96 2 28.109 -64.4738 -20.4445 -88.0151 -10.6782 -76.2333 5.3032 -99.4013 33.1737 -102.705 195.541
19942 2 26.1899 -64.1013 -18.6147 4.11461 -25.6888 -106.194 -51.4355 -55.0321 83.7857 -100.146 218.749
27447 1 25.3855 -62.8371 -18.0376 -201.612 148.668 86.8288 94.9154 142.572 -144.506 -333.123 505.482
22376 2 25.6305 -62.8382 -16.4058 87.538 -83.0177 11.6073 -22.9839 -143.208 62.3331 -105.664 310.92
25253 2 23.7771 -62.5969 -17.8862 146.719 -139.348 -23.7891 16.2357 -30.9669 20.3455 -92.7765 258.92
20181 2 28.1882 -62.3742 -15.8889 72.8859 -44.6553 14.8695 -53.6176 -108.427 77.1201 -118.722 268.513
27375 1 26.6442 -61.9982 -15.5343 -164.972 185.503 -72.2303 79.7411 310.47 -100.052 -303.967 661.22
25074 2 26.3671 -61.6811 -18.7357 47.4315 -0.835025 -40.7345 -71.3116 -58.517 19.9596 -106.534 180.475
2487 1 27.6464 -61.3178 -19.6527 -9.78797 -97.8254 23.6339 141.013 177.616 32.7324 -320.725 411.486
29876 2 26.5678 -60.4174 -15.885 57.6645 -51.84 38.0325 -54.1329 -116.853 -17.8864 -117.062 246.864
17586 2 28.1043 -59.8244 -19.6591 26.5896 51.7367 18.8497 -108.795 -87.4656 -88.9126 -107.007 288.207
17612 2 29.0791 -62.0442 -19.0123 -5.67588 11.7466 32.4489 -13.2957 -100.142 22.9701 -115.07 182.459
24589 1 26.7746 -58.8751 -16.395 -49.0877 -10.6377 -133.089 183.451 154.932 160.134 -307.258 511.535
29877 2 27.8054 -58.6312 -17.5548 51.5725 9.13675 34.563 -107.154 -71.322 -100.068 -112.571 284.808
24851 2 24.2535 -63.9197 -20.6463 131.562 -77.5962 -230.948 -13.4084 46.9694 99.8107 -81.1021 369.301
29677 1 31.2763 -64.398 -15.1965 139.811 -57.6946 38.3291 -44.5404 42.6457 -141.484 -309.293 317.372
25076 2 30.2711 -64.2389 -18.4373 -74.8623 26.969 -4.42981 17.5392 -83.6972 46.835 -113.874 191.513
24961 1 34.1369 -63.9597 -15.505 -69.1881 146.976 26.5235 -95.1343 308.356 -99.8084 -313.387 614.399
4709 2 30.6902 -62.9621 -15.5738 -19.1171 -17.0708 9.75045 -17.2634 -32.6078 77.2545 -121.438 150.888
7 2 34.3308 -63.2291 -16.8887 113.748 -96.2244 -18.3457 29.7466 -187.245 57.1892 -113.682 389.166
27184 1 30.521 -62.8442 -19.1777 42.1361 -3.60414 -180.05 -73.096 275.592 -29.1008 -307.714 536.394
2657 2 31.5609 -62.1696 -18.1606 42.8998 -19.3223 97.0638 30.1125 -111.508 12.6757 -116.169 225.122
27266 1 29.64 -61.7158 -15.5918 -124.937 89.8779 -73.3141 62.6111 145.273 -126.219 -289.284 400.734
20000 2 30.1792 -60.6776 -16.6882 49.4552 -16.4865 45.5915 -5.28161 -71.4228 4.15759 -121.726 139.813
27361 1 31.6994 -60.6965 -17.4037 -100.706 32.9144 -170.991 -40.0453 206.946 29.7759 -297.047 410.044
29844 2 32.4134 -59.8802 -16.2157 63.7686 -1.81645 68.4392 23.8072 -88.4876 11.611 -119.203 173.852
27360 2 32.0645 -59.8068 -18.7082 29.0403 -19.7563 127.517 11.3029 -135.249 -29.8719 -114.282 273.534
24973 1 32.1509 -58.6857 -15.1436 -49.2105 -78.4829 -169.164 -73.1099 135.894 -50.8441 -299.049 301.541
22378 2 31.0146 -62.7739 -20.7214 -15.373 -48.8636 129.488 35.877 -230.801 2.44657 -107.568 436.628
27527 2 35.2802 -59.4251 -21.0432 -4.5426 -41.6196 157.648 -108.857 -90.625 74.5617 -116.752 332.507
86 1 -19.5807 -57.6708 -16.4232 -224.222 139.945 -112.119 -58.6898 191.82 -106.741 -324.31 509.175
190 2 -20.7092 -56.8536 -17.1983 89.6001 -41.9995 40.3878 16.5903 -89.4523 36.9937 -107.542 205.427
7576 1 -23.7697 -56.1158 -19.9854 -88.0838 -3.93988 -172.351 41.5217 117.921 -105.014 -314.38 318.189
5291 2 -22.7503 -55.8479 -18.7995 84.8646 -25.7106 75.6013 2.86943 -42.3361 34.2099 -108.848 142.13
7574 1 -21.3145 -55.6558 -18.0956 -171.869 76.4662 -112.26 -7.14098 125.636 -44.3059 -318.881 322.205
2686 2 -22.4226 -55.2629 -14.8994 62.9188 -43.4092 106.721 11.0733 -85.0295 -0.211479 -108.276 199.849
29756 2 -20.3512 -55.2291 -19.3687 89.1934 -40.436 48.7443 -6.2208 -64.8586 27.6166 -106.6 167.99
25173 2 -21.1994 -54.4621 -17.0521 78.3469 -39.9946 47.5377 13.3003 -65.253 21.9419 -108.133 161.421
7468 1 -19.9517 -54.0375 -20.3784 -114.347 40.3401 -136.37 5.22178 87.6229 3.41073 -323.67 225.765
267 1 -21.5562 -54.0318 -15.5291 -181.566 92.9572 -146.617 -64.3162 117.329 -13.3942 -321.57 348.191
5147 2 -22.4823 -52.7579 -15.8032 109.223 -35.4038 57.6121 24.0503 -56.5657 -0.827458 -107.594 165.688
2676 2 -20.1439 -52.6379 -19.5849 48.5522 -42.5127 85.566 2.79824 -54.4477 -5.36005 -106.401 148.448
29664 2 -23.3902 -57.4978 -20.7226 11.4663 45.3666 102.425 -34.3903 -57.486 71.5036 -110.243 187.455
2961 2 -23.6194 -55.0345 -21.1345 43.5113 -22.2949 75.4875 4.87381 -86.5038 42.3041 -108.434 188.005
22547 2 -18.7786 -58.1895 -19.9899 33.8659 24.6656 70.757 9.43087 -53.7555 110.487 -106.634 217.584
7381 1 -15.0562 -58.5613 -15.4601 -165.56 232.491 -182.363 -11.0697 9.81048 -151.592 -334.161 484.781
27573 2 -18.4444 -57.8463 -17.5374 86.0543 -50.1062 40.5303 10.0767 -73.7793 78.4795 -105.949 222.543
27651 1 -17.6374 -57.9163 -18.8741 -73.7679 1.22657 -95.273 -20.1341 72.4207 -186.96 -320.922 359.878
4986 2 -15.9611 -57.3198 -15.8733 82.6647 -91.1772 79.3062 -11.4451 0.351207 65.4517 -102.121 207.108
7464 2 -18.5684 -56.6042 -15.5698 113.33 -89.5633 75.503 31.4209 -50.6732 58.3069 -102.871 236.191
27644 2 -17.1659 -56.436 -19.5683 25.6974 -19.7545 25.5991 24.6298 -30.2692 77.1534 -107.397 156.486
2966 1 -13.5898 -56.4942 -19.4589 -157.43 90.1883 -72.1128 -19.8587 -75.0325 -89.9515 -332.219 299.69
5068 1 -17.0371 -56.1339 -15.7277 -143.276 161.388 -183.922 -15.8407 31.3282 -137.778 -329.09 409.269
27569 2 -14.577 -55.5812 -18.5086 89.2546 -46.3446 -8.48978 1.56474 24.823 29.8645 -104.57 138.631
7308 2 -16.7613 -55.1203 -17.0267 51.3339 -47.2296 64.5636 14.801 -29.6421 50.1377 -105.606 148.419
29941 1 -15.7001 -54.4981 -18.0333 -105.292 69.5142 -46.1457 -33.9531 33.5868 -88.6783 -322.212 232.703
22089 2 -16.2068 -53.9267 -19.4932 30.097 -36.5327 5.67389 18.0623 -12.9875 40.854 -106.801 99.5018
27635 2 -15.21 -53.1324 -17.3569 59.5623 -58.7213 48.9283 24.7666 -10.4405 51.9582 -104.875 152.028
309 2 -13.1498 -57.765 -18.6639 87.1689 -40.0762 -2.05527 5.673 53.7423 59.0964 -101.89 178.99
5172 2 -14.2622 -56.6775 -20.9302 30.7508 -36.2279 93.4018 19.3529 -20.3359 79.1624 -100.334 183.771
2490 2 -18.3745 -54.1522 -20.6943 52.8479 -10.4609 49.8814 -9.37238 -14.1711 5.00282 -104.672 69.0657
7645 1 -17.2539 -55.2791 -20.773 -57.1955 8.26126 -88.5517 -15.7 49.4966 -120.074 -325.209 242.204
5104 1 -12.6404 -58.1007 -17.1924 -232.446 138.572 37.6259 -32.9967 -88.0003 -158.514 -328.403 460.729
2403 1 -7.56398 -57.7084 -18.0026 -140.531 77.4614 112.89 -1.44391 -17.2411 -66.5723 -341.369 265.881
7582 2 -8.35345 -57.278 -16.6501 65.4497 -52.0289 -62.2276 8.16721 20.4093 54.7824 -101.003 159.864
7820 2 -12.3917 -56.6904 -16.4749 115.279 -108.002 -1.9762 34.1636 26.2637 73.9489 -102.819 243.718
17269 1 -8.73728 -56.8277 -15.206 -105.433 141.143 -20.0606 -36.6867 -64.0241 -148.528 -335.786 359.937
12389 2 -7.45548 -56.4262 -18.9322 44.1288 -62.705 12.0505 38.9801 -1.49685 10.1183 -95.0705 117.846
5467 2 -10.1409 -55.9638 -15.3212 61.8424 -96.6298 18.2699 30.0557 17.9901 85.9214 -102.364 214.326
12192 2 -12.2005 -55.6366 -19.6812 77.5625 -77.4507 35.1363 33.1581 57.7153 10.0094 -98.503 181.231
10084 1 -11.4868 -55.4094 -16.0146 -197.85 163.897 -57.3749 -54.478 -65.4392 -161.609 -330.474 447.08
29775 1 -8.00553 -55.1327 -19.723 -92.8353 194.475 -116.614 -127.292 16.237 -20.7472 -344.611 375.015
6 2 -9.58559 -54.9512 -19.591 87.8927 -108.987 32.6896 40.3387 22.04 -4.02259 -96.3466 193.205
5175 1 -11.0491 -54.6128 -19.1219 -226.109 193.706 -50.8029 -50.4925 -88.2054 31.357 -337.902 409.047
5100 2 -11.2446 -54.7286 -17.4877 107.731 -85.5375 15.2091 15.6408 52.9699 23.0664 -101.363 196.924
2963 2 -11.5894 -53.1222 -19.5001 106.737 -95.9092 32.9477 16.5855 22.2834 -0.104563 -97.8533 184.044
27755 2 -12.3598 -54.5575 -14.915 123.57 -91.9565 40.4735 9.35395 13.7511 70.3148 -99.6088 226.074