ITEM: TIMESTEP
680000
ITEM: NUMBER OF ATOMS
29952
ITEM: BOX BOUNDS pp pp pp
-2.5151511364899502e+01 3.5136805706892048e+01
-8.2372185948407889e+01 9.2357480290407892e+01
-2.0980622470386777e+01 3.4848475616542608e+01
ITEM: ATOMS id type x y z v_StrAtomXX v_StrAtomYY v_StrAtomZZ v_StrAtomXY v_StrAtomXZ v_StrAtomYZ c_PEAtom v_VMS
313 1 -20.4634 92.5455 -15.2386 -1.78682 -19.806 64.285 309.121 558.236 232.553 -335.598 1178.84
120 2 -21.0675 -77.96 -18.5031 -158.025 155.854 -113.391 -193.251 -183.848 35.427 -97.4137 551.095
444 2 -21.2871 -78.2054 -15.8749 -215.595 269.726 -174.975 -105.786 -173.168 -62.4852 -111.226 593.902
4994 1 -20.6846 -77.3291 -17.0877 427.155 -411.739 308.889 312.921 426.877 -42.4383 -320.275 1210.1
7767 1 -19.6139 -78.6749 -18.7978 343.78 -400.17 300.359 516.291 512.037 -123.446 -334.352 1467.98
5309 2 -19.7162 -80.1476 -18.2047 -128.761 137.542 -102.546 -260.157 -286.895 40.9192 -103.307 720.845
2706 2 -19.3243 -80.9943 -15.5975 -63.4789 110.757 11.2681 -239.256 -266.308 -70.7504 -101.719 649.946
2606 1 -19.2671 -81.3521 -17.2042 160.429 -151.891 26.6585 531.979 617.54 31.6306 -327.119 1438.66
7320 2 -19.1331 -77.734 -17.498 -136.431 240.152 -166.516 -181.628 -252.107 71.3577 -99.1017 677.47
319 2 -20.3682 92.2546 -16.8982 -8.49046 1.66 6.04134 -147.357 -311.735 -4.58642 -93.7476 597.417
2805 2 -18.7197 -78.7557 -20.1547 -188.16 231.119 -193.754 -240.813 -199.381 29.8008 -97.8091 688.525
5367 1 -17.4529 -82.2381 -19.1529 226.257 -104.919 170.25 353.233 224.914 31.6533 -294.071 789.526
7686 2 -15.2224 -81.8405 -18.5596 30.9997 -7.85299 -161.124 -109.912 -56.6367 -54.597 -116.247 292.855
210 2 -17.8488 -81.9179 -17.6352 -75.6281 45.3838 -15.7527 -252.816 -216.214 -21.4054 -111.873 586.814
5185 1 -14.3128 -81.6909 -19.9053 -162.123 61.6866 354.076 191.99 107.038 97.881 -312.617 612.141
14878 2 -17.4639 -80.9344 -20.065 -139.619 102.308 -152.581 -201.561 -133.321 8.95439 -116.095 487.11
7499 2 -13.0498 -80.6559 -19.6515 70.4561 83.8897 -263.423 -42.2729 -49.2669 -34.0568 -97.1958 363.68
2981 2 -12.0309 -82.2022 -17.664 140.165 -27.1414 -253.762 -69.2728 -85.4256 45.9385 -101.575 399.854
2806 2 -10.6215 -82.2156 -19.9061 127.325 52.0216 -267.099 -132.261 -96.566 35.7457 -96.0043 464.571
7981 1 -11.9962 -81.862 -19.215 -270.579 -12.5192 556.891 206.137 166.642 -9.33482 -331.533 865.339
10376 2 -1.60895 -80.2531 -19.4031 -259.619 199.965 -77.1482 -50.6898 57.6062 16.0747 -116.379 423.192
7694 1 -1.10714 -81.0434 -20.702 597.954 -302.462 -14.9665 -49.3561 -179.016 -38.3734 -292.884 861.628
12885 2 -0.808168 -81.2228 -16.7864 -303.439 194.581 94.7944 -55.79 81.269 -33.0371 -120.715 490.624
17678 1 -0.575459 -80.7568 -18.3007 638.264 -352.171 -24.4296 31.7631 -125.6 31.4886 -287.729 903.934
12805 1 -0.313676 -82.0871 -15.4673 561.73 -380.969 -247.963 130.426 -254.463 58.7845 -288.079 1018.16
20633 2 2.55187 -81.9067 -20.2487 -193.24 90.5517 36.204 82.9262 -30.5612 -26.0872 -107.401 305.846
22662 2 -0.166267 -81.943 -19.5041 -311.707 148.492 37.9191 28.0977 96.1381 -20.0777 -130.209 452.138
17596 1 1.34763 -81.0212 -19.9334 513.928 -254.793 46.156 -157.377 -28.3453 73.7838 -299.17 737.022
15396 2 0.977276 -80.295 -18.6083 -293.309 196.203 -43.7866 79.0877 61.194 -19.9586 -116.688 459.274
429 2 -22.9121 -76.5588 -14.9115 -130.521 210.05 -304.395 -43.1818 -66.6834 -116.371 -111.452 514.78
5278 2 -21.1566 -75.8763 -16.6241 -237.317 190.289 -214.017 -90.8624 -122.659 -52.9574 -110.303 501.741
25465 1 -21.9279 -75.375 -15.3686 456.293 -390.09 579.288 158.066 112.43 176.201 -306.735 1020.59
5189 2 -22.4068 -50.1193 -15.1537 -385.191 301.911 -196.482 -123.849 44.0542 -142.228 -25.1562 700.416
516 2 -23.3552 -49.165 -17.7451 -421.647 315.795 -333.095 -148.022 -10.7918 -106.074 -48.8063 765.635
22681 1 -22.8347 -49.0651 -16.1563 800.213 -482.558 482.578 274.428 -42.4082 260.855 -457.455 1332.07
10469 2 -21.6265 -48.1133 -16.8019 -297.234 140.505 -268.64 -157.877 81.8101 -79.9638 -43.3892 542.175
25007 2 -24.0196 -48.0336 -15.6821 -444.829 170.349 -155.704 -108.441 -8.98222 -121.546 -45.6199 603.336
25201 1 -22.4796 -47.8034 -18.1396 676.485 -361.02 613.685 359.866 -41.235 187.372 -421.191 1230.5
3102 2 -22.3715 -47.3851 -19.673 -306.334 200.649 -278.333 -187.057 -0.0781173 -112.143 -60.8279 621.546
5304 2 -23.5524 -46.7578 -17.6042 -385.922 142.299 -228.588 -163.391 16.3624 -101.051 -63.7394 576.36
5488 1 -23.5013 -46.561 -20.4236 701.783 -426.369 402.43 313.79 5.6402 269.278 -393.886 1240.02
111 1 -24.783 -46.952 -16.5898 882.421 -330.536 325.907 264.972 45.2933 195.468 -416.138 1198.9
25257 2 9.37834 -48.1013 -19.8334 -405.801 411.619 -331.528 121.444 -65.9967 -17.428 -16.8711 819.27
17930 1 10.087 -46.8351 -19.4252 840.74 -579.841 590.466 -132.757 153.659 91.3711 -472.046 1368.91
17688 2 11.7596 -46.8992 -19.3298 -441.972 288.689 -324.704 1.69672 -129.065 -27.2493 -33.3763 717.038
17899 2 12.1201 -46.4491 -16.7964 -481.985 296.763 -309.275 25.9831 -156.814 -39.7311 -34.38 763.094
5394 2 -24.9677 -47.0795 -20.0272 -377.716 233.353 -212.631 -122.897 21.637 -111.639 -71.77 619.585
3000 2 34.3431 -47.5656 -17.5711 -413.709 242.238 -213.402 -62.2765 -26.5205 -126.289 -60.3438 632.922
9911 2 32.7559 -47.2642 -19.8066 -322.021 284.821 -249.807 -34.5802 16.4506 -116.409 -65.2205 612.129
2596 1 34.0929 -46.9784 -18.9641 725.07 -464.324 411.568 153.299 -37.4344 220.177 -396.774 1166.28
2993 2 -23.6864 -45.0722 -19.9479 -341.96 196.794 -184.375 -99.6827 -15.6138 -121.432 -74.2758 552.239
7681 1 -24.4023 -43.6798 -20.0246 670.661 -517.239 275.081 182.771 84.9878 140.353 -382.146 1130.78
5084 2 -24.5313 -43.4801 -18.3379 -363.434 267.37 -130.215 -132.797 -47.3148 -26.9111 -70.5049 605.792
25115 2 35.0021 -45.417 -16.3989 -450.973 215.979 -104.411 -164.262 -27.7229 -38.1412 -62.3073 649.158
10206 2 9.82129 -46.336 -17.8792 -425.66 257.336 -309.515 91.5469 -107.464 -69.7568 -37.4916 689.226
20170 2 9.86117 -45.4488 -20.3966 -389.547 189.765 -210.279 49.7438 -63.4247 -32.1577 -44.5367 535.24
22278 2 10.5785 -44.5702 -15.6894 -457.382 220.546 -170.916 101.968 -71.8388 11.9891 -48.867 628.134
15177 2 7.38132 -42.4867 -19.6461 -301.249 117.604 -201.539 86.9155 -98.8144 39.5954 -58.1798 447.522
23037 2 9.72062 -42.0595 -18.7388 -310.843 106.516 -86.5487 24.6573 -74.0231 33.0368 -69.9714 390.413
20200 1 10.6677 -41.5197 -17.3809 524.35 -129.894 46.805 1.09995 100.152 -62.4556 -394.215 620.847
20533 1 8.50695 -41.3012 -19.4546 613.765 -184.941 189.138 -33.346 186.328 -111.727 -392.345 789.954
20359 2 9.46263 -41.0093 -16.4368 -261.22 82.2919 -44.4277 -38.108 -42.0742 51.4138 -71.3349 328.825
20065 1 6.78753 -43.5447 -20.6544 541.397 -218.467 526.192 -291.856 143.63 -51.56 -442.699 944.18
12564 2 5.41425 -43.8725 -20.8673 -157.289 100.661 -296.511 187.762 -17.2704 17.4762 -31.9467 478.965
18038 1 10.7992 -45.5551 -16.9084 935.56 -490.587 500.016 -137.394 240.335 51.2684 -446.149 1356.56
25446 2 11.4507 -40.2924 -18.06 -160.392 -11.7819 -8.5322 -0.313509 -75.0245 50.9044 -74.3149 217.344
15557 2 11.4505 -40.5511 -20.586 -161.394 11.3479 -101.857 -9.91953 -78.8494 47.5969 -75.2681 221.005
10094 1 12.6458 -46.031 -18.3812 771.004 -497.524 665.583 -37.6331 336.243 49.1773 -454.847 1355.44
15176 2 14.156 -45.5794 -18.686 -322.953 240.249 -350.442 50.8518 -163.377 -13.8555 -39.9688 649.495
378 2 16.6996 -44.7746 -18.0812 -263.599 173.235 -305.425 38.0361 -109.187 9.2405 -38.6343 501.205
20469 2 11.7401 -44.7509 -18.1174 -363.007 200.685 -225.964 44.0748 -129.591 -9.72052 -50.8873 561.935
22754 1 15.1876 -44.3534 -18.5571 487.053 -314.774 586.451 -129.83 269.729 -60.6611 -439.476 1006.17
22762 2 11.5086 -42.4332 -16.4193 -313.269 110.156 -36.986 47.2444 -46.2599 34.4272 -63.1537 394.091
19790 1 11.4073 -43.3347 -15.0306 840.809 -314.317 155.238 -198.962 37.7451 -98.9171 -421.726 1079.25
20420 2 15.2484 -43.31 -19.8859 -189.673 66.1517 -197.103 32.4367 -126.313 51.2947 -59.055 355.411
17771 2 14.7283 -43.3574 -17.278 -222.209 79.4011 -160.327 73.2171 -151.308 67.0359 -51.4013 417.588
22851 1 15.1331 -41.8311 -16.9695 338.594 46.257 103.997 -115.146 275.878 -216.275 -411.138 693.066
10086 2 16.6753 -41.8681 -17.3006 -178.656 -21.6237 -120.204 24.0748 -119.565 117.156 -62.4047 323.573
23047 2 14.7374 -41.0663 -15.6248 -173.71 -57.3914 63.5475 80.0587 -148.693 105.557 -65.2625 401.506
12682 2 15.1248 -40.6482 -20.4601 -97.5235 -20.6928 -78.7954 20.0967 -112.304 60.1654 -71.1598 233.929
15093 2 14.4696 -40.7293 -18.0218 -112.998 -48.7269 -49.4289 40.6521 -85.7554 85.6315 -69.8925 230.443
20076 2 13.1892 -42.2794 -20.9529 -117.664 9.25616 -138.104 4.09272 -90.1322 60.1249 -65.6847 233.211
19983 1 14.7842 -42.1698 -20.971 245.529 13.3847 212.418 -20.5293 255.269 -130.058 -403.551 542.951
25246 2 22.9273 -46.2175 -19.1852 -365.264 268.033 -314.997 28.6556 34.4008 -76.3582 -47.8171 628.7
22253 2 19.0534 -46.1673 -17.6083 -290.468 304.912 -265.055 -17.7447 -57.5545 -106.034 -19.6734 620.164
17570 1 18.2854 -44.8849 -18.0068 484.737 -350.673 546.088 27.0724 185.737 30.2027 -465.329 928.094
25056 2 18.6207 -44.6611 -19.6372 -198.597 130.801 -281.966 -14.9422 -109.527 45.926 -46.5745 431.162
2899 2 18.6762 -43.4949 -17.231 -202.102 44.4334 -201.381 -49.9784 -89.3094 24.7582 -44.6441 306.371
25359 1 18.3197 -41.9558 -17.3577 314.553 24.9885 301.617 48.5521 242.241 -211.978 -415.438 631.021
15 1 19.9837 -41.3667 -19.9647 101.327 1.32242 235.141 26.2082 111.968 -177.931 -396.564 419.451
23145 2 19.2365 -41.4287 -18.6003 -73.6712 -17.2435 -151.651 -19.7833 -116.102 116.031 -66.1593 309.302
27450 2 21.453 -40.6556 -19.8614 -0.145656 17.8266 -133.712 5.80799 -9.29513 86.9528 -73.2646 208.821
17562 2 18.563 -40.7355 -16.368 -154.812 -23.8398 -89.6851 -22.2859 -148.123 107.865 -64.0153 339.236
27664 1 22.3113 -45.6033 -20.5688 522.242 -375.124 613.727 -8.61382 -139.009 21.0895 -426.398 977.373
23050 2 20.0457 -42.8468 -20.5822 -117.28 35.0089 -165.974 -32.7999 -30.6491 71.2282 -65.164 232.905
24979 2 20.8141 -45.3374 -20.7431 -234.085 168.591 -319.093 -20.9674 20.052 11.7101 -50.9965 454.469
20107 2 23.0955 -44.2726 -20.0128 -215.879 159.654 -262.952 -8.36573 53.3862 26.4605 -65.4587 414.462
2510 1 23.0817 -40.4353 -19.8745 165.968 -116.969 236.535 -11.543 -33.4825 -139.806 -372.012 409.144
138 2 25.4228 -45.4464 -19.2944 -299.974 239.327 -298.354 -1.38452 -21.5914 -45.6601 -63.0984 545.558
27553 1 23.9033 -45.0853 -18.8084 664.312 -436.19 553.196 -16.2432 -17.3147 68.9623 -414.481 1056.94
124 1 26.379 -45.0983 -20.5624 409.346 -366.305 539.904 6.71327 99.3615 -4.61597 -398.649 865.89
27731 2 24.0733 -43.8931 -17.7844 -320.038 212.055 -222.559 -3.26294 -32.6287 -23.0655 -63.7882 495.56
310 2 26.898 -43.5969 -20.283 -173.23 182.404 -237.488 -23.7958 -82.2396 40.6879 -78.2733 424.75
299 2 28.9036 -42.7155 -18.9173 -179.31 206.609 -162.557 -40.3331 -55.1352 57.3271 -80.6032 408.177
25358 1 27.3029 -42.3921 -19.2364 328.264 -407.171 416.362 72.6027 159.25 -111.556 -367.207 861.769
27860 2 26.1366 -42.4378 -18.1272 -232.244 189.788 -204.514 -20.22 -39.2288 32.3341 -80.5255 419.71
27952 1 24.5008 -42.377 -17.9592 508.578 -374.792 428.628 27.1164 62.45 -76.7633 -381.54 864.692
27588 2 23.9231 -41.6262 -19.3426 -168.915 132.679 -215.007 0.631768 22.1501 42.9106 -81.6839 337.612
27573 2 23.9086 -41.2231 -16.9919 -212.044 97.8898 -146.807 -27.5303 -51.7748 40.0147 -75.5041 308.569
2875 2 27.3044 -40.9319 -19.9317 -122.28 167.86 -152.114 -35.195 -79.6031 40.6815 -89.9654 348.452
17950 2 28.4541 -40.7144 -15.9167 -148.391 -3.05777 -34.0676 -52.0777 -22.0102 -14.2532 -79.0721 166.66
2433 2 27.6178 -46.0446 -20.8477 -245.133 251.664 -295.072 -15.8024 -62.1362 -41.5326 -62.8837 540.016
2782 2 34.0955 -45.3838 -18.6399 -375.548 228.598 -146.78 -146.861 -12.6809 -73.192 -74.6399 600.314
232 1 34.6195 -44.3105 -17.5538 847.204 -551.039 205.189 352.249 80.8825 25.2771 -392.835 1365.05
9802 2 33.5161 -43.2384 -16.9828 -408.876 273.217 -72.8411 -160.941 -37.204 25.5636 -72.4478 657.862
2622 2 34.3177 -43.2336 -20.3204 -306.322 274.699 -99.6623 -122.092 -30.6506 -32.1743 -80.8252 557.551
112 1 29.9653 -43.2861 -19.9899 396.588 -430.772 312.242 109.459 134.597 -65.7172 -372.42 851.53
22773 2 31.5227 -42.8205 -19.9035 -240.14 234.428 -92.4543 -63.1783 -35.0332 42.2429 -82.293 444.914
28143 1 32.8626 -41.8888 -16.3485 768.444 -350.311 34.2064 202.891 -8.02083 -22.3529 -378.228 1046.17
2601 2 31.2738 -41.7634 -15.9149 -275.296 121.297 -44.3647 -63.4469 22.1272 -25.8753 -76.7998 366.856
28031 2 33.1805 -41.008 -20.0237 -282.882 272.628 -37.2584 -49.5115 -59.4131 2.75472 -85.6611 500.442
12879 1 30.0397 -40.7281 -16.2033 335.278 -66.2596 63.5044 101.996 -26.2965 56.5122 -371.424 410.89
24924 2 33.1613 -40.7592 -17.4988 -338.405 159.093 9.52213 -59.2297 -21.2119 -22.8025 -84.4518 457.054
5202 2 30.2043 -40.5151 -17.7525 -154.903 89.8464 -60.2167 -39.5343 -6.67414 -10.0166 -88.523 225.426
193 1 32.9125 -42.5116 -20.6654 513.548 -549.101 128.213 190.832 63.1924 -16.9569 -368.039 995.149
22883 2 33.7667 -41.4087 -15.0127 -455.424 132.527 -7.22944 -79.2958 32.8652 4.21947 -75.6975 552.454
24888 2 29.7793 -44.8053 -20.3973 -247.801 217.122 -237.705 -73.21 -79.2848 -35.4611 -75.6349 500.272
5187 1 -24.749 -35.125 -19.4277 283.888 -138.389 102.79 -143.316 171.966 -107.254 -324.486 565.231
5364 2 35.2218 -36.4298 -20.1328 -184.078 126.269 -56.6942 75.7424 -90.8754 57.1839 -101.67 353.276
7500 2 -8.54637 -39.8689 -18.319 -389.062 52.721 0.099052 54.045 62.3126 -63.0743 -83.2233 455.017
10198 2 -7.73621 -40.2033 -15.4753 -469.451 -24.7368 178.716 -42.0344 149.055 -73.3888 -67.2175 646.338
7513 1 -7.63406 -39.7197 -16.9975 953.153 -5.74998 -299.915 37.239 -186.592 124.9 -377.51 1201.46
15292 1 -8.36784 -39.4772 -19.8602 718.16 -180.505 121.424 -31.5084 -199.269 191.024 -346.145 926.823
3120 2 -7.77513 -38.0988 -16.6543 -487.612 29.9314 171.84 -68.174 68.3298 -22.5091 -81.5943 625.222
7718 1 -7.84398 -36.5916 -16.4248 896.877 -157.985 -386.24 194.538 -43.5127 11.5851 -375.279 1235
15286 2 -9.05 -36.1148 -17.3585 -402.052 94.9722 152.652 -109.252 15.8262 15.4796 -82.3603 562.411
7987 2 -8.15709 -36.1019 -14.8976 -440.856 34.7774 223.392 -130.184 51.5822 18.002 -73.5428 641.336
15097 1 -9.42002 -34.663 -17.9405 707.988 -124.636 -286.829 264.194 -58.0198 -98.6955 -365.188 1050.4
10499 2 -10.2549 -34.5959 -19.3077 -263.24 52.9469 109.996 -145.126 106.684 43.6623 -84.8591 473.619
20085 2 -9.24785 -38.4992 -20.8147 -278.202 101.628 -63.0914 -6.0411 127.267 -124.362 -95.8675 451.593
100 1 -9.95714 -34.5815 -20.8837 451.284 -151.793 -142.046 326.684 -323.098 -23.6981 -344.859 996.467
5465 2 -7.55499 -40.4795 -20.927 -391.843 208.951 -136.748 -10.2851 89.5063 -40.6851 -89.0967 549.623
5466 2 -6.8774 -38.6934 -19.9319 -405.802 62.0047 -27.4067 -39.7869 105.295 -78.4677 -100.838 491.418
12695 2 -5.0569 -39.7845 -20.2749 -304.752 68.2732 -147.553 -115.807 65.329 -45.529 -81.0309 405.557
7800 2 -6.10584 -39.7178 -17.6906 -429.187 6.42251 72.5542 -74.7801 126.881 -84.3637 -79.2883 556.203
7766 1 -5.44843 -39.0067 -18.9615 652.224 -41.7664 96.3965 97.4902 -240.375 116.067 -365.107 804.423
7858 2 -4.86201 -37.6284 -18.5882 -262.465 6.05865 -55.518 35.206 141.437 -37.9947 -77.5051 356.965
5169 2 -6.43384 -36.17 -17.0896 -346.02 76.7946 100.844 0.250897 72.749 -10.6886 -78.9671 453.585
12674 1 -5.30252 -36.1156 -18.2356 505.739 -134.535 56.6481 -175.001 -256.385 6.62085 -377.023 783.134
10073 2 -6.11067 -35.5832 -19.6347 -254.615 91.544 2.55212 51.992 103.77 -0.142864 -91.5658 370.613
10185 2 -4.11498 -35.0701 -18.0653 -113.922 -48.1095 -81.4725 160.31 158.097 12.218 -67.0221 394.687
10085 2 -1.71601 -34.492 -17.1409 35.8175 -203.195 -79.4549 146.109 172.716 -5.0132 -51.3681 443.254
22974 2 4.98533 -38.4582 -17.2249 -259.481 7.26647 -81.4663 28.321 5.72711 0.644691 -71.6925 240.55
13131 1 4.68623 -37.1903 -18.1676 451.437 54.9016 -45.2194 26.489 -99.9809 84.0131 -392.481 510.132
20181 2 3.46048 -37.3083 -19.2171 -136.589 -83.6083 -32.5339 40.5041 118.081 -36.0702 -55.8248 242.437
19699 2 0.924352 -36.754 -18.9207 109.881 -92.2056 -141.111 57.7304 85.1289 1.18065 -36.5494 291.303
12880 1 2.16741 -36.496 -19.8212 21.0664 205.716 201.432 -56.2264 -232.949 12.1673 -437.559 453.924
20466 2 4.46133 -36.0684 -16.9932 -205.262 -29.1122 -0.751999 -62.0354 19.9459 -60.3752 -78.2317 245.973
12999 1 4.73753 -35.7804 -15.3951 395.061 15.1532 38.8485 143.106 97.8515 63.1903 -364.068 487.885
15108 2 0.78615 -34.8485 -15.5725 61.6993 -169.527 -89.1427 -32.9392 38.4263 -49.309 -53.0848 237.316
25355 2 2.65904 -34.9535 -19.6407 -36.8697 -113.972 -45.2458 -68.2138 89.3347 -4.13039 -60.5905 208.139
20276 2 3.30071 -35.5108 -14.8144 -69.4025 -76.5997 -63.9719 -100.96 -58.1741 -25.5844 -72.1363 206.92
12610 2 5.43016 -37.3078 -14.8768 -272.874 -32.674 -52.34 -11.6477 -55.1751 2.90111 -87.8818 250.847
19896 2 8.12829 -40.2088 -18.3412 -264.16 63.9206 -40.8632 -50.0093 -119.771 74.4906 -74.3174 389.132
12567 1 8.47554 -39.8531 -16.7802 446.191 -122.167 88.4468 140.107 205.513 -188.276 -380.444 734.592
12958 2 7.14263 -39.4203 -16.0146 -230.54 57.545 -99.4724 -40.7369 -95.923 69.7685 -79.1666 331.056
12867 1 5.61802 -38.8731 -15.8299 570.271 -57.8518 254.261 -61.3905 119.458 -57.0004 -377.607 599.81
22956 2 9.38414 -38.5229 -16.6667 -156.662 43.7859 -9.93457 -58.4436 -68.317 70.7032 -81.3893 267.474
17780 2 10.8117 -38.1076 -19.5991 -156.583 78.0208 -30.7041 -28.869 -77.3375 5.14462 -77.468 248.748
15193 1 9.98585 -37.1467 -20.5835 299.146 -128.147 35.2282 98.8846 128.645 52.2852 -376.309 476.074
27913 1 9.26119 -37.0619 -16.0986 197.915 -20.5261 -17.9493 74.9762 101.705 -14.0846 -361.624 309.275
17946 2 6.09444 -36.8113 -18.9095 -224.965 -19.7537 91.7166 -60.7802 -31.5911 -34.2657 -78.5196 308.239
22855 2 8.6456 -36.5135 -19.9359 -173.904 27.3527 43.1234 -72.3351 -83.3173 -9.72692 -81.4142 284.136
13154 1 7.05768 -36.2544 -20.1253 375.206 28.6215 -155.206 158.118 100.559 31.8633 -374.234 570.974
20275 2 7.88756 -36.449 -16.636 -158.655 15.999 27.4244 -30.4909 -60.0537 -28.0455 -90.2229 220.45
13056 2 10.5334 -36.2067 -16.5417 -63.8506 -22.1544 25.7209 -23.9559 -67.2023 -38.8321 -83.5387 160.688
14987 2 6.11728 -34.9681 -15.5046 -220.391 25.7218 31.0507 -47.186 -38.9851 -52.0106 -93.4261 285.072
13035 1 7.30573 -34.9445 -16.5813 335.22 -47.6868 -87.1437 64.7168 83.0179 136.823 -349.017 502.678
17878 2 7.08273 -34.7163 -20.671 -156.707 -33.0113 78.7644 -79.2594 -26.911 -0.310259 -83.1579 250.279
17870 1 14.7319 -39.6678 -19.1624 135.108 42.5921 137.805 -58.8412 138.929 -123.1 -389.531 350.096
18027 1 11.7374 -39.4746 -19.4132 232.391 -25.704 133.044 16.2674 144.228 -69.5511 -383.296 358.543
20340 2 13.3066 -39.0245 -19.4872 -47.7544 9.1893 -76.2635 4.89487 -67.2943 33.0202 -72.8793 150.357
28013 2 15.8142 -38.462 -18.8343 -100.909 -3.04174 -15.571 37.9749 -61.8321 61.2311 -74.6423 188.553
17975 2 12.8269 -36.3371 -15.5863 -16.1437 -67.9833 17.7768 -13.0452 -47.0578 -88.3676 -80.2518 190.202
20473 1 11.9071 -35.3762 -16.4478 41.5854 126.337 -51.9702 24.908 147.651 172.467 -371.858 424.691
288 2 16.7277 -35.9696 -17.9807 -58.865 -26.7343 0.848811 -3.48508 -46.4416 33.9093 -80.9745 112.41
5386 2 12.6593 -34.8682 -17.7304 -16.6113 -60.9866 -8.34398 -0.755315 -70.6665 -59.0675 -80.8624 166.896
20381 2 13.0862 -34.4822 -20.2419 -48.9083 -68.4745 22.3547 -17.5571 -33.2416 55.6317 -80.5061 142.759
12877 1 16.8248 -34.4485 -17.3309 40.8323 43.3564 60.5962 45.886 71.3454 27.2165 -365.518 155.423
22981 1 17.027 -37.4331 -18.5728 227.502 33.9157 -63.7901 -69.0939 117.239 -124.441 -379.063 409.818
20358 2 11.1129 -36.01 34.7341 -99.3868 -6.86097 -9.86233 -19.5493 -48.7732 -10.0505 -79.7195 129.917
27756 2 17.1762 -38.9477 -15.076 -148.534 -95.1536 -34.6482 71.5763 -198.624 50.8856 -77.543 388.886
20257 1 18.35 -39.2144 -16.2365 271.887 66.9316 114.18 -73.4977 309.846 -216.145 -385.595 692.049
4920 2 17.9148 -38.3566 -17.533 -127.767 -31.1153 -20.3537 41.0927 -93.2995 97.1247 -78.4045 264.532
27653 2 19.7759 -38.4904 -15.7453 -37.8609 -51.1619 -114.266 5.07177 -179.765 70.3465 -74.5125 341.86
27839 2 17.6042 -37.2048 -20.0799 -105.306 -30.4782 45.0934 31.9126 -79.5436 58.9257 -76.6195 222.303
25346 1 19.8228 -37.0275 -15.2637 100.591 164.009 182.773 -96.4346 340.707 -88.9568 -371.309 636.747
27957 2 19.8045 -36.1063 -16.6778 -21.0164 -82.8299 -67.635 32.1046 -152.761 47.302 -87.1331 287.966
25348 1 19.853 -34.5659 -17.1811 26.2972 102.407 16.6477 -28.1939 261.978 -26.5067 -356.933 465.843
133 1 27.0391 -39.7312 -15.9442 324.117 101.69 -34.3279 132.351 82.9722 26.3532 -368.337 416.552
22775 2 25.8689 -39.7023 -17.0499 -173.791 36.5727 -89.8539 -64.0176 -45.0261 14.635 -90.3658 229.478
24955 2 23.4935 -39.437 -18.6328 -107.582 73.1375 -149.354 -39.3559 -43.0792 87.6416 -87.3185 274.246
27652 1 24.2423 -39.6526 -17.2087 347.562 -122.39 266.306 130.504 129.991 -99.5908 -361.039 566.403
27474 2 27.6526 -38.3031 -16.278 -97.822 -14.4751 -6.80508 -49.7644 -53.5736 -28.3619 -84.8303 161.548
22747 2 26.1916 -38.5254 -19.9335 -106.229 84.6463 -92.2381 -23.3792 -72.6533 17.6052 -96.327 228.831
20480 2 24.0496 -38.0347 -16.7984 -148.094 27.528 -116.59 -112.367 -116.148 35.9599 -88.5335 329.443
27748 1 28.4712 -37.4587 -17.3478 79.7406 -146.779 195.883 -21.1164 94.2733 30.4526 -355.903 349.128
25455 1 26.3575 -36.9895 -19.54 154.061 -174.701 199.34 87.6596 208.926 10.3907 -340.204 528.533
317 2 27.4032 -36.7844 -18.3409 -15.8331 84.6487 -147.635 -21.8498 -82.2326 4.04785 -94.2783 249.96
2885 2 24.9269 -36.5902 -18.8969 -114.545 79.2007 -112.984 -75.9802 -122.044 16.5392 -97.0317 316.325
27676 1 24.1094 -36.6817 -17.565 216.199 -108.037 288.257 218.468 273.901 -79.3055 -347.222 721.667
405 2 23.7242 -35.1864 -17.3625 -102.412 40.8467 -90.6645 -68.7146 -137.99 65.7037 -92.7815 321.276
1038 2 26.7796 -36.1255 -20.851 -72.0991 89.1928 -42.4827 -8.234 -78.8246 -22.6752 -94.6403 206.158
27747 1 26.8279 -39.6625 -20.8474 170.981 -199.03 184.774 46.1662 113.014 -35.4659 -352.831 436.677
7892 2 29.2694 -38.3669 -18.4096 -69.2021 75.6208 -100.171 10.511 -58.441 -25.3907 -95.265 197.305
503 2 29.6064 -36.5967 -16.7802 -105.787 131.585 -44.6568 74.0488 -16.5912 17.1251 -84.3977 252.442
27842 1 33.3092 -39.8664 -18.8571 566.691 -420.987 35.5501 14.9378 124.849 95.0692 -358.26 898.648
28042 2 30.6654 -39.4664 -15.2574 -186.594 -1.87067 18.7678 -15.9145 23.576 -9.7153 -81.1529 202.661
25172 2 30.182 -39.4752 -20.4745 -135.164 140.316 -45.4836 12.1616 -105.855 23.0651 -93.9581 308.029
27579 1 30.3596 -39.4349 -18.861 256.157 -225.663 108.398 9.95264 108.489 42.0611 -346.787 472.973
5313 2 31.9575 -39.0075 -18.7302 -211.955 121.653 -23.5436 -2.83523 -65.1659 -58.9917 -93.5756 327.325
27744 2 34.3622 -38.8074 -19.441 -262.812 226.305 -45.2168 41.739 -80.92 -43.5897 -89.4772 459.048
399 1 34.2099 -37.6558 -20.5082 433.806 -375.135 41.1687 -137.703 168.57 -43.3443 -338.693 799.187
5577 2 32.8521 -36.8294 -20.3378 -167.014 170.946 -34.0341 86.2625 -86.0678 39.7742 -102.835 369.122
101 2 34.0291 -36.3776 -14.9622 -378.246 90.6614 132.711 16.1342 15.4787 -53.9151 -84.2582 501.577
25468 1 31.3627 -36.1066 -20.2037 169.341 -327.123 102.154 -155.33 174.55 -83.7723 -332.032 634.408
27478 2 31.1703 -35.8164 -18.5739 -117.932 182.875 -53.3226 86.4026 -76.3039 37.9838 -98.1065 345.565
2869 1 30.6188 -35.4362 -17.0263 300.67 -342.107 29.9558 -129.712 54.7491 -76.1464 -356.287 623.941
12871 2 31.766 -35.3735 -15.8765 -259.595 139.516 91.427 11.2125 6.4981 -11.5611 -86.2922 378.569
25134 2 30.1966 -36.9644 -20.9697 -55.4445 126.216 -57.0056 50.4028 -100.852 16.2048 -96.8177 268.718
3185 2 31.68 -34.6999 -20.8888 -82.816 108.341 5.58302 13.8736 -50.8687 74.0852 -105.61 228.612
2768 2 -23.5328 -34.3467 -19.8441 -76.9795 19.5929 -55.8759 118.909 -106.502 78.6509 -104.442 320.527
5592 2 -21.0517 -33.1092 -19.9203 -41.6594 -66.4794 -31.3008 124.496 3.71459 100.229 -98.33 278.671
195 1 -22.5484 -33.0469 -20.3382 41.6148 23.9413 49.7889 -282.745 165.02 -234.79 -322.881 698.162
28057 1 -19.4974 -32.7729 -19.6622 -0.798092 301.023 -17.5913 -178.968 -96.2389 -140.596 -354.535 528.794
10090 2 -23.207 -31.7952 -19.517 0.888305 21.1106 -18.4379 92.2459 -108.018 161.582 -106.963 374.208
28048 1 -22.754 -30.3396 -19.1498 -59.7362 51.0418 -39.8981 -128.437 212.101 -305.299 -321.662 688.868
7593 2 -22.0862 -30.0122 -17.7781 45.3551 -107.581 41.0642 49.7325 -11.2974 162.584 -100.582 331.445
25620 2 -21.5277 -29.9953 -20.1309 -17.7812 -30.8203 9.64936 63.6953 -100.088 96.9574 -105.78 267.78
27739 2 -24.1104 -29.482 -19.203 52.8158 -41.5601 19.6 57.9591 -125.224 105.956 -110.128 312.532
414 2 -20.6507 -29.0945 -15.664 54.7617 -185.033 90.2762 39.2632 105.927 101.05 -89.1661 369.051
27856 1 -21.1112 -28.8989 -17.1457 -103.801 263.844 -180.123 -156.09 -80.1634 -233.646 -343.137 652.066
5398 2 -19.1931 -32.3672 -15.986 -38.891 -199.445 24.5026 26.9984 175.251 71.6545 -76.3559 386.915
22856 2 -25.0387 -30.0535 -15.6496 -48.4281 -144.116 120.163 102.587 10.2328 100.806 -101.292 340.71
480 2 -19.0777 -31.7148 -18.5362 17.7814 -212.656 66.8606 49.2894 101.276 79.7367 -87.3268 352.069
3095 2 -14.5404 -33.96 -17.1334 54.3856 -69.0497 20.0665 -45.9747 75.8581 9.69349 -51.9243 189.906
13173 2 -19.0602 -33.853 -18.4961 -56.334 -102.354 -9.53399 52.9478 130.764 42.6219 -75.3232 267.618
7969 1 -15.448 -32.9386 -16.4148 -84.1786 394.685 -78.7302 -22.5444 -223.109 16.3907 -408.366 615.138
3066 2 -17.0129 -32.9937 -16.9361 -12.0848 -221.867 23.5133 46.7944 147.175 30.4018 -68.2068 356.465
5474 1 -18.5434 -32.8121 -17.3437 76.6404 429.629 -79.7486 -98.8823 -328.825 -100.881 -381.995 767.139
5563 2 -15.0806 -31.3699 -16.7573 57.0196 -251.446 108.761 34.2158 66.6171 -5.58705 -74.2415 361.536
18235 2 -14.1702 -30.7553 -19.2625 46.6126 -267.891 140.304 -35.273 69.0217 96.8097 -84.1397 428.133
5282 1 -14.3182 -30.3581 -17.6842 -62.8489 474.577 -257.954 64.8127 -126.163 -78.6483 -371.605 714.603
28136 2 -15.0276 -28.9396 -17.5717 10.9059 -183.29 111.52 -54.9368 56.2271 45.404 -86.2987 303.475
279 1 -13.9327 -30.8105 -20.8369 -140.021 484.136 -202.906 106.154 -161.946 -296.422 -350.352 899.367
450 2 -18.8848 -32.4889 -21.1584 67.8859 -135.601 -9.12102 122.314 -49.5656 82.3447 -92.9895 322.896
396 2 -12.8772 -29.9971 -17.1104 -11.6001 -211.599 146.292 -100.484 66.4362 23.1263 -84.8252 376.358
10074 2 -7.99717 -34.0481 -18.266 -324.832 64.3101 76.8368 -76.2675 61.5458 60.8573 -89.0746 443.157
20189 2 -9.91171 -33.6875 -16.8223 -337.931 -5.64615 179.805 -147.661 -8.3007 33.2976 -81.376 524.759
5485 1 -10.6176 -33.0345 -15.5593 539.444 122.278 -368.532 266.785 -3.47784 13.7416 -373.754 913.124
7966 2 -11.4293 -31.7654 -16.0251 -138.916 -145.255 177.557 -144.541 42.5321 -25.3908 -81.8981 415.016
12307 2 -8.3288 -31.6044 -18.5751 -213.613 32.0138 82.0729 -38.425 76.8493 36.4737 -87.927 318.233
7708 1 -11.418 -30.3168 -16.7401 143.092 334.265 -352.964 220.215 -105.384 -2.34005 -362.933 745.835
3105 2 -10.4026 -30.2505 -17.9888 -104.766 -107.515 133.706 -63.5742 57.1169 10.2826 -89.1585 282.42
12949 1 -9.30919 -30.4562 -19.0753 299.655 33.1674 -204.979 39.3934 -170.024 -29.8151 -352.867 534.078
7895 2 -10.8048 -29.3681 -15.5602 -88.1174 -116.315 183.502 -70.3285 50.8404 4.24525 -86.8456 323.848
5675 2 -8.34172 -29.1408 -19.0708 -112.3 -37.7565 77.9025 63.3872 70.9897 2.86667 -90.8378 233.992
8070 2 -10.0085 -30.6588 -20.5138 -102.476 -16.3666 100.987 -26.5896 110.5 58.8536 -94.1321 283.61
5654 1 -7.29378 -28.4977 -17.9977 163.656 149.358 -176.999 -170.814 -169.859 42.2118 -361.93 539.271
12577 1 -7.19581 -32.6769 -18.3261 408.533 -94.1199 -91.1053 42.9348 -136.117 -143.877 -366.312 611.857
5460 2 -8.33692 -34.3047 34.9795 -235.58 88.6078 78.2458 -82.6856 130.223 25.4317 -98.4201 418.534
482 1 -6.70051 -34.3349 -20.424 376.301 -145.277 -71.6838 -49.4735 -169.08 -19.9887 -349.251 577.391
12619 2 -6.78813 -29.6098 -16.9735 -102.775 -86.2386 120.2 75.1812 111.927 -21.4629 -80.4506 319.728
12784 1 -3.05611 -33.9214 -17.8031 6.50698 332.45 116.172 -351.661 -338.253 -37.7567 -413.801 895.007
10446 2 -6.35503 -32.9406 -19.6876 -132.094 53.8512 -47.9041 38.375 41.6037 35.8549 -83.9278 198.686
5482 2 -2.84181 -33.1664 -19.2569 23.6466 -158.298 -60.9242 195.978 128.117 -36.4194 -64.3705 439.672
5483 2 -3.81706 -32.8704 -16.788 -14.7226 -139.072 -2.8196 99.3985 155.892 76.9845 -61.9728 370.69
8055 1 -5.10686 -32.7802 -15.8891 133.655 176.847 -204.508 -108.178 -244.803 -180.528 -406.784 665.951
3080 2 -6.31852 -32.6206 -17.0861 -149.497 -16.1615 61.6933 24.1931 88.2466 100.75 -75.3779 299.651
3092 2 -5.29975 -33.8915 -14.859 -121.862 -33.6457 201.331 63.1505 122.749 18.4093 -58.4086 376.707
10098 2 -5.34262 -31.2039 -15.3387 -38.9251 -129.669 84.6583 63.5707 120.719 51.9485 -70.1326 314.103
8138 1 -6.46701 -30.0491 -15.4589 156.526 275.76 -271.768 -178.359 -233.66 -6.59827 -378.715 712.795
12948 2 -1.76575 -29.4258 -20.4045 62.8774 -194.1 -23.6499 22.8951 96.6903 29.7932 -77.3218 289.087
13271 2 -3.24728 -28.7396 -15.0314 46.7559 -170.634 50.9121 47.9523 68.8896 -45.4373 -78.2644 274.788
10455 1 -1.8203 -29.3211 -14.7462 -30.4673 249.62 -41.8535 -9.88223 -78.4845 91.3475 -378.463 354.363
10452 2 -5.81908 -28.6677 -14.8917 -20.4437 -159.192 116.666 97.5534 118.83 -32.134 -80.1658 362.054
15547 2 -1.58703 -30.8605 -14.823 -7.02462 -137.615 16.5103 4.82584 36.9704 -18.6349 -70.8761 160.914
12688 1 -2.79956 -32.7871 -20.7932 -70.0792 218.315 193.376 -377.417 -215.369 102.293 -399.278 821.264
5395 2 -0.653278 -28.4902 -15.5525 -12.6608 -158.395 75.0583 -40.1093 34.4298 -34.8406 -81.2694 231.82
13090 2 -0.836461 -33.2828 -15.0561 -20.5339 -216.718 -2.60048 36.2305 57.8926 -26.1623 -60.2129 241.607
10274 1 -0.374164 -34.0384 -16.3695 -96.9349 460.685 111.421 -101.188 -200.167 67.5403 -426.436 634.643
17750 1 3.1438 -33.4563 -19.7582 64.2271 231.904 -18.9233 189.806 -151.104 30.2992 -393.196 477.809
10643 2 4.50034 -33.2769 -18.8483 -90.6322 -68.6779 36.3635 -93.7187 51.0753 -32.331 -80.85 226.127