ITEM: TIMESTEP
1560000
ITEM: NUMBER OF ATOMS
29952
ITEM: BOX BOUNDS pp pp pp
-2.5151511364899502e+01 3.5136805706892048e+01
-1.1105914607716868e+02 1.2104444041916868e+02
-2.0980622470386777e+01 3.4848475616542608e+01
ITEM: ATOMS id type x y z v_StrAtomXX v_StrAtomYY v_StrAtomZZ v_StrAtomXY v_StrAtomXZ v_StrAtomYZ c_PEAtom v_VMS
5189 2 -22.9797 -44.1372 -14.9343 -439.088 333.921 -210.032 -114.485 42.6752 -139.648 -20.8642 759.102
516 2 -23.8007 -43.4354 -17.5613 -475.632 372.974 -363.404 -148.148 7.71414 -84.6475 -42.5079 851.474
22681 1 -23.2319 -43.0597 -15.9511 889.067 -514.507 475.842 300.706 -89.0241 236.831 -466.229 1422.71
10469 2 -22.1389 -42.2624 -16.8141 -377.507 178.56 -305.465 -187.557 102.601 -57.5985 -40.9137 649.158
25007 2 -24.3466 -41.9318 -15.6076 -486.35 194.626 -172.41 -140.569 17.2559 -99.1033 -42.1289 661.92
25201 1 -22.9874 -42.1896 -18.2286 781.578 -464.771 709.497 404.123 -56.9423 130.952 -429.382 1421.22
3102 2 -22.8915 -41.8741 -19.7552 -357.076 245.707 -327.564 -202.537 -0.382614 -50.6364 -55.2648 690.786
5304 2 -23.9525 -40.9728 -17.9122 -418.205 197.966 -294.412 -187.482 30.9002 -75.5164 -62.4412 666.434
5488 1 -24.0004 -40.8879 -20.4286 770.144 -494.538 509.095 346.545 -6.38925 164.84 -404.512 1333.92
2993 2 -24.2701 -39.3722 -20.0395 -385.5 221.036 -218.014 -130.157 -6.67238 -92.0133 -71.3427 608.857
111 1 35.1908 -41.0107 -16.7327 964.273 -439.878 422.126 309.955 18.3461 151.751 -419.065 1364.78
25115 2 34.8952 -39.5109 -16.4316 -492.233 258.841 -144.702 -177.975 -11.5369 -0.537022 -61.0995 720.621
7681 1 -24.795 -37.8921 -19.9887 765.813 -572.195 334.163 194.555 74.2237 88.1147 -390.507 1245.96
25257 2 9.24803 -41.9035 -19.7389 -453.629 431.081 -349.253 109.535 -61.7776 -12.8018 -7.90428 865.562
17930 1 10.0783 -40.6702 -19.4893 966.892 -616.03 622.919 -59.6269 134.933 67.7156 -489.033 1469.19
10206 2 9.90725 -40.1031 -17.9161 -501.106 265.81 -329.527 48.0684 -104.788 -75.3918 -30.6826 736.843
20170 2 9.71719 -39.515 -20.6176 -448.135 191.653 -226.826 14.5606 -43.9283 -21.3705 -32.7143 569.658
22278 2 10.609 -38.4983 -15.6684 -492.569 229.263 -202.285 79.5844 -55.3483 -4.55533 -40.5772 651.171
18038 1 10.8525 -39.3067 -17.0272 1004.73 -479.187 555.701 -58.5304 207.027 61.5148 -458.89 1373.87
17688 2 11.7207 -40.6493 -19.4343 -509.428 302.965 -345.12 -25.7219 -111.727 -17.9015 -25.9386 770.644
17899 2 12.3174 -39.9905 -17.0293 -505.91 289.843 -320.384 -1.3841 -122.338 -46.5626 -28.9442 755.923
10094 1 12.5926 -39.6053 -18.5688 856.331 -470.884 688.407 -17.0044 291.834 43.9588 -466.812 1352.4
15176 2 14.0111 -39.0659 -18.9233 -346.617 230.73 -355.909 42.3746 -144.352 0.276503 -33.9565 637.714
378 2 16.4331 -38.5579 -18.0172 -323.216 205.218 -352.414 19.9889 -91.6681 17.2648 -27.9494 568.178
20469 2 11.5807 -38.3461 -18.3089 -394.111 184 -240.133 25.6067 -101.51 -15.2348 -45.2335 549.984
22754 1 15.1071 -37.9242 -18.6448 569.083 -326.965 623.361 -121.51 225.509 -87.3168 -454.573 1036.44
25246 2 22.4683 -39.4088 -19.1943 -347.837 217.93 -321.44 0.828849 40.1236 -60.7076 -39.4865 567.224
22253 2 19.0352 -39.6318 -17.7307 -300.823 291.176 -286.903 -28.9501 -42.5087 -89.3 -10.8894 611.78
17570 1 18.0353 -38.5133 -18.1235 562.704 -370.177 612.535 38.3482 166.149 8.92623 -485.137 1003.35
25056 2 18.3191 -38.14 -19.7539 -223.449 122.3 -294.138 -11.1727 -121.793 66.655 -36.4297 455.174
27664 1 22.2036 -38.9796 -20.6802 547.104 -293.448 620.295 46.7157 -177.329 14.2318 -441.544 935.36
20107 2 23.0952 -37.6749 -20.3445 -249.688 113.4 -253.677 -46.9053 78.1008 35.9172 -59.0661 402.575
138 2 25.0545 -38.9141 -19.2241 -392.556 210.024 -276.744 -15.5127 10.465 -16.2211 -57.8684 555.49
124 1 26.0719 -38.8361 -20.4826 550.11 -369.885 551.153 35.2601 42.9224 -35.9138 -409.642 927.619
27553 1 23.627 -38.3357 -18.9037 701.367 -324.855 525.276 50.3083 -62.8714 -4.07205 -426.284 960.693
2433 2 27.3579 -39.7908 -20.7715 -302.124 253.313 -293.796 -27.2533 -42.536 -12.2087 -58.8073 558.621
5394 2 34.7603 -41.3772 -20.0947 -425.93 293.784 -264.07 -123.386 47.0411 -52.7155 -67.0036 698.815
3000 2 33.9464 -41.5707 -17.6812 -451.358 292.747 -256.635 -64.7592 -20.2626 -93.4882 -58.6374 697.674
9911 2 32.2086 -41.2598 -19.8124 -382.471 314.035 -273.26 -16.5434 37.6658 -64.0998 -62.4462 662.106
2596 1 33.586 -40.9745 -19.0772 834.024 -549.765 472.137 145.194 -80.6263 128.397 -399.62 1295.09
2782 2 33.7729 -39.3321 -18.6148 -452.151 279.269 -175.518 -146.924 11.4853 -11.42 -74.4773 688.995
232 1 34.4983 -38.3626 -17.4989 964.167 -632.034 305.558 374.571 49.6401 -74.538 -393.85 1541.21
24888 2 29.5726 -38.5946 -20.4474 -287.934 258.348 -236.689 -70.4782 -32.603 17.6487 -71.4338 540.444
5084 2 -24.6895 -37.6435 -18.4122 -386.052 308.675 -189.282 -124.474 -26.5356 15.5592 -67.7974 658.774
7500 2 -8.62276 -33.9207 -18.4002 -446.141 88.9781 0.194427 82.9066 68.4613 -57.3862 -75.0177 539.709
10198 2 -7.87588 -33.774 -15.4645 -507.045 -16.1994 171.298 -27.9602 131.943 -71.5858 -64.2295 661.864
7513 1 -7.82825 -33.4307 -17.0331 1052.71 -58.3676 -282.139 -10.7961 -163.104 119.378 -387.79 1286.9
15292 1 -8.49826 -33.3961 -19.9141 832.811 -225.857 100.824 -100.389 -198.783 151.032 -360.735 1048.27
3120 2 -8.26286 -31.9011 -16.98 -526.922 41.4124 156.445 -29.713 18.7984 -24.3771 -77.7549 638.048
20085 2 -9.47523 -32.3301 -20.6495 -312.564 127.856 -67.1837 23.1845 125.774 -100.879 -88.6257 475.089
5466 2 -6.9821 -32.4833 -19.849 -480.102 86.4136 -27.7799 -12.3529 92.9605 -60.7223 -93.6861 553.834
12695 2 -5.15315 -33.4416 -20.3056 -322.038 76.698 -138.854 -94.1106 56.1837 -34.5995 -73.6959 398.919
7800 2 -6.24718 -33.5431 -17.7326 -484.768 25.2116 75.4222 -66.8538 125 -76.595 -73.1535 605.054
7766 1 -5.64646 -32.6753 -18.9066 792.07 -91.5534 59.4503 55.3835 -226.376 110.356 -377.235 932.544
22974 2 4.73438 -32.5799 -17.1589 -305.544 7.88808 -76.0938 26.8751 -18.5945 31.7124 -62.4805 291.875
20065 1 6.73496 -37.4007 -20.5773 658.837 -193.833 489.861 -218.202 121.791 -35.4745 -455.965 895.895
15177 2 7.01514 -36.1308 -19.7607 -336.741 90.9415 -187.829 42.3103 -78.4559 31.9407 -50.7404 410.241
23037 2 9.4404 -35.706 -18.7526 -326.338 63.3117 -109.479 -10.2124 -59.1943 19.5978 -61.8185 355.433
20200 1 10.4762 -35.3691 -17.4462 534.407 -134.011 156.522 24.2752 58.7608 -46.1008 -413.53 596.235
20533 1 8.21508 -35.0238 -19.5381 696.654 -177.084 204.051 30.3249 167.029 -89.6263 -409.308 828.386
20359 2 9.29834 -34.7601 -16.5218 -282.15 58.502 -83.6943 -93.7477 -36.966 56.3967 -61.8289 357.535
19896 2 7.8125 -33.8179 -18.394 -317.116 69.4149 -48.1093 -85.65 -112.188 72.0365 -65.9236 439.461
12567 1 8.18916 -33.5755 -16.9144 515.938 -130.861 138.177 184.946 204.513 -207.509 -398.618 820.968
12958 2 6.91649 -33.3085 -16.0001 -288.261 65.34 -107.453 -58.5184 -105.558 88.4851 -70.5403 401.224
12867 1 5.42242 -32.84 -15.7052 649.845 -68.6448 242.401 -35.705 144.903 -103.895 -392.936 699.065
22956 2 9.10393 -32.2964 -16.665 -171.664 40.1664 -25.9908 -71.8731 -73.0391 86.2262 -71.3266 298.397
17780 2 10.5477 -32.0068 -19.5777 -168.256 67.7653 -32.5531 -42.2133 -66.8197 -1.91644 -66.4079 246.666
12564 2 5.44164 -38.0447 -20.7272 -230.78 128.982 -291.904 183.935 -24.4286 9.52196 -24.2179 508.639
15557 2 11.3596 -34.428 -20.6801 -183.61 -1.62501 -103.689 4.70463 -49.2889 27.8306 -64.1856 186.117
19790 1 11.3613 -37.1596 -15.114 879.56 -306.463 229.24 -179.11 -1.92002 -91.301 -437.588 1086.06
20420 2 15.3243 -36.9331 -19.9019 -243.655 77.4364 -222.157 22.7417 -97.2378 60.6504 -49.8606 370.96
17771 2 14.4421 -36.8666 -17.5494 -252.934 91.1196 -182.198 83.9453 -131.643 65.835 -46.8782 430.317
25446 2 11.2786 -34.167 -18.2072 -158.444 -15.079 -48.3833 -6.77804 -60.0389 30.1816 -63.6469 174.85
22762 2 11.3218 -36.2682 -16.4449 -333.114 105.906 -88.625 49.1395 -21.7886 34.4206 -55.0782 396.737
22851 1 14.9265 -35.3746 -17.1565 428.693 51.4945 146.266 -133.879 235.985 -189.446 -420.583 666.348
10086 2 16.5219 -35.4519 -17.4308 -218.783 -29.2575 -151.295 28.8357 -104.427 110.835 -56.2012 315.827
23047 2 14.7099 -34.7599 -15.7505 -215.779 -77.3084 37.0789 77.8766 -131.464 91.4538 -59.7284 378.46
12682 2 14.9965 -34.381 -20.5999 -161.864 -21.7112 -89.0841 29.6815 -79.8986 39.4267 -63.1955 202.971
15093 2 14.3167 -34.4268 -18.2868 -162.625 -58.8717 -77.1231 44.1207 -69.3828 66.9376 -63.6441 207.191
17870 1 14.6315 -33.3446 -19.4076 268.207 64.5793 163.312 -76.3224 101.007 -57.4309 -402.798 298.471
18027 1 11.5967 -33.2893 -19.5206 248.83 -7.61022 166.216 30.854 107.885 -28.5052 -405.25 302.675
20340 2 13.1037 -32.7466 -19.6939 -84.7997 -2.94561 -87.5674 -5.69541 -44.1432 1.96225 -64.1426 113.53
28013 2 15.6574 -32.2018 -19.063 -161.836 -11.4739 -37.7132 53.0179 -49.6145 30.3634 -68.47 194.77
27756 2 17.1099 -32.5105 -15.133 -176.157 -92.6132 11.0616 71.3507 -165.201 21.2356 -71.4459 353.397
2899 2 18.5289 -37.0804 -17.5171 -217.12 47.433 -223.762 -46.172 -78.1207 32.9703 -36.317 315.84
25359 1 18.1222 -35.5207 -17.4084 359.78 49.37 335.474 52.314 199.735 -191.676 -431.324 572.287
23145 2 18.8708 -34.7772 -18.6452 -106.732 -32.5741 -165.61 -30.4364 -106.205 103.368 -58.4051 286.364
15 1 19.6941 -34.8368 -20.0023 181.168 8.17489 294.006 85.664 131.649 -191.931 -416.109 496.69
27450 2 21.0801 -33.9784 -19.897 -42.4484 11.5217 -152.336 -17.6835 -17.4205 84.7837 -62.7591 210.551
17562 2 18.4828 -34.4228 -16.2704 -163.262 -45.1386 -88.5494 -26.857 -107.525 84.8063 -55.5217 262.935
20257 1 18.2533 -32.8521 -16.2631 321.347 93.4363 122.897 -71.4052 243.719 -155.63 -400.272 558.794
4920 2 17.7465 -32.0567 -17.5344 -178.333 -48.9596 -34.8014 38.7139 -70.8667 78.0513 -71.4636 237.925
27653 2 19.6585 -32.1272 -15.8446 -59.2696 -59.5291 -123.406 -13.9782 -127.689 36.8275 -66.3356 240.136
2510 1 22.6099 -33.435 -19.8374 165.29 -88.2653 266.932 48.5215 -35.2074 -113.762 -396.45 387.298
24955 2 22.9093 -32.0352 -19.0701 -85.9898 45.7573 -123.721 -60.9255 -18.0933 33.2352 -73.7272 197.948
23050 2 19.8491 -36.3062 -20.4622 -139.837 9.51109 -194.213 -61.3176 -44.4867 89.1058 -54.379 272.798
310 2 26.8165 -37.3585 -20.1662 -236.511 202.574 -242.436 -6.35548 -42.7396 70.7025 -71.2817 464.79
27731 2 23.7062 -37.0525 -17.9347 -318.84 169.241 -210.731 -22.7145 -2.40442 51.872 -56.8454 454.733
299 2 28.7763 -36.5992 -18.8865 -255.129 255.28 -117.768 -15.0183 -14.3267 101.729 -74.51 491.543
25358 1 27.2285 -36.1006 -19.3184 445.106 -456.945 305.714 -9.74904 82.6118 -180.069 -383.238 908.526
27860 2 25.8734 -35.7841 -18.4769 -258.768 180.047 -147.33 -7.49191 -9.24456 85.8309 -73.7544 422.613
27952 1 24.2778 -35.5418 -18.0088 500.83 -296.159 313.67 39.9454 -47.7893 -170.644 -398.949 787.434
27588 2 23.5645 -34.6088 -19.0843 -160.474 104.492 -164.04 -34.0944 38.1147 63.2928 -70.1551 301.709
27573 2 24.0643 -34.5982 -16.6815 -211.525 33.2659 -83.479 -29.3502 25.8817 64.1396 -67.7638 248.816
17950 2 28.8312 -34.5029 -15.3826 -219.656 28.8772 -35.8086 -54.9145 -66.2007 13.7313 -86.5594 269.512
2875 2 27.4534 -34.6524 -20.0417 -188.374 190.762 -128.196 -12.4848 -20.5655 66.8794 -81.5653 373.771
133 1 27.5824 -33.4336 -15.2642 397.238 217.801 -29.258 64.6463 135.987 -33.7608 -355.062 457.166
22775 2 26.2785 -33.6609 -16.0468 -211.221 -71.6887 10.8364 -28.6906 -0.615988 24.6876 -84.704 205.167
27652 1 24.7473 -33.22 -16.1943 356.994 150.586 2.05095 152.979 -48.2405 -28.5965 -380.168 418.292
27474 2 28.1112 -32.0942 -16.0348 -167.606 -44.8429 51.8222 -9.85393 -64.416 -69.6618 -90.2079 252.15
22747 2 26.6199 -32.2923 -19.6583 -126.835 85.9638 -89.4905 -33.9211 -1.74417 -27.185 -87.2672 210.735
20480 2 24.4042 -31.9455 -17.15 -128.438 -51.3042 -49.2286 -108.507 -5.1327 -49.5763 -78.0606 221.106
2622 2 34.1214 -37.1611 -20.4063 -399.059 329.574 -110.916 -127.145 -26.4378 4.22004 -76.8664 674.262
9802 2 33.5859 -37.1653 -16.8058 -486.563 335.282 -96.9754 -188.521 -46.3166 73.6621 -72.5775 797.723
112 1 29.7894 -37.0836 -20.0893 541.444 -544.452 317.137 95.28 42.2033 -173.048 -381.325 1052.77
22773 2 31.3904 -36.775 -20.0323 -315.857 310.822 -104.39 -91.0522 5.16584 86.388 -79.4154 593.518
28143 1 33.0342 -35.7435 -16.4126 897.399 -505.344 86.5456 280.718 55.1382 -116.82 -373.708 1332
2601 2 31.4637 -35.4424 -16.1562 -364.787 190.177 -55.9745 -110.984 -14.6914 35.7225 -84.3009 522.875
28031 2 32.9105 -34.8725 -20.2938 -368.723 303.285 -47.2449 -57.3288 -60.539 31.7457 -82.2903 602.317
12879 1 30.2341 -34.4053 -16.1676 505.616 -144.339 -3.57261 142.644 81.0908 -30.9136 -354.069 659.091
24924 2 33.5143 -34.824 -17.7347 -401.661 252.078 -26.6098 -87.009 -55.3139 15.0119 -82.5545 596.17
5202 2 29.8151 -34.2107 -17.7172 -242.019 109.055 11.5198 -43.3965 -28.5172 30.4438 -90.6852 330.748
7892 2 29.5046 -31.8758 -18.3596 -190.504 108.778 -21.8985 19.9298 -34.6338 -63.5359 -95.3636 290.582
27842 1 33.1821 -33.9073 -18.9837 701.668 -535.712 68.57 34.1382 147.904 64.0423 -362.325 1109.04
28042 2 30.8162 -33.0123 -15.4995 -253.8 17.4717 20.5837 7.79215 -19.4091 -2.99823 -94.6154 275.285
27579 1 30.2476 -33.1728 -18.8219 479.592 -282.999 4.80263 22.3181 82.6277 30.9556 -346.581 685.384
25172 2 30.1598 -33.2082 -20.4219 -237.523 174.636 -33.7777 7.29747 -45.5722 24.536 -90.5041 368.25
5313 2 31.8626 -33.061 -18.6444 -297.171 197.616 -0.030274 5.246 -66.558 -45.9538 -93.656 453.644
27744 2 34.216 -32.7398 -19.5776 -302.197 265.82 -70.9256 56.6555 -98.1523 -43.2179 -84.9072 537.493
193 1 32.7359 -36.3912 -20.8064 721.709 -682.026 153.551 204.368 50.1626 -92.2883 -375.984 1286.13
22883 2 33.6447 -34.9728 -15.0771 -436.831 178.335 -42.9931 -85.8859 20.3621 46.3338 -79.717 566.636
399 1 34.0711 -31.6339 -20.6645 546.376 -424.033 74.8066 -168.904 207.081 -32.4724 -352.562 961.173
5187 1 -24.9806 -29.0695 -19.5033 352.933 -169.76 174.184 -192.556 162.744 -49.946 -332.107 640.237
2768 2 -23.8201 -28.1881 -19.8686 -95.0426 21.5684 -72.6179 123.225 -93.4554 53.3299 -100.374 302.941
5592 2 -21.2542 -26.882 -20.0894 -32.1256 -70.7256 -40.1412 114.136 -26.7821 87.9739 -93.2591 256.312
195 1 -22.8332 -26.8849 -20.3889 96.6387 28.5217 41.3306 -272.345 172.504 -195.666 -332.881 656.183
28057 1 -19.7001 -26.7247 -19.7543 20.6593 276.957 14.7636 -181.644 -66.368 -109.617 -367.806 464.198
10090 2 -23.2702 -25.5519 -19.6025 -22.9147 19.1343 -32.4167 98.1282 -96.509 144.943 -104.167 349.447
5398 2 -19.1906 -26.2977 -16.0029 -32.9143 -169.409 -23.6877 39.4839 191.154 56.1549 -73.4007 379.119
13173 2 -19.4032 -27.8178 -18.5655 -65.6521 -92.3117 -37.5341 56.594 125.11 28.0127 -71.0964 247.328
5364 2 35.0006 -30.3059 -20.3142 -218.673 149.894 -73.4188 87.9836 -97.9248 30.2037 -96.1327 397.659
3095 2 -14.6432 -28.1185 -17.303 -8.5774 -22.7468 13.8654 -22.7471 35.7689 16.854 -46.8011 85.2359
3066 2 -17.1657 -27.1364 -17.2889 -43.3487 -178.756 -0.361939 70.9357 134.041 21.8145 -63.7577 310.529
7969 1 -15.6717 -27.1029 -16.6802 41.3558 271.482 -28.2261 -80.9153 -191.605 13.6818 -415.7 451.834
5474 1 -18.7475 -26.8373 -17.4392 80.2318 355.96 -2.52091 -134.45 -347.18 -73.2126 -390.636 733.214
13079 2 -15.954 -27.1193 -15.0833 -62.8409 -121.476 -72.9476 19.1915 172.074 -16.9861 -65.2886 306.18
480 2 -19.1195 -25.7297 -18.6133 32.2051 -177.003 31.6784 83.6768 99.7137 36.6582 -80.8091 313.884
7718 1 -8.15013 -30.38 -16.5506 1009.06 -205.673 -368.147 171.216 6.82491 72.6122 -384.092 1342.84
15286 2 -9.31763 -29.6335 -17.4692 -432.082 111.444 149.41 -99.3825 -6.98429 -15.8861 -76.2929 589.942
7987 2 -8.44637 -30.0614 -15.0158 -490.857 66.6084 209.774 -120.649 5.73117 -4.47374 -69.1299 674.464
15097 1 -9.46432 -28.1592 -17.9505 754.998 -165.264 -260.265 216.56 -7.24752 -52.5496 -372.581 1045.21
10499 2 -10.354 -27.9203 -19.2602 -274.016 65.3687 80.8201 -125.323 82.3003 54.9132 -82.5714 444.014
10074 2 -7.94001 -27.7723 -18.3849 -353.413 99.3789 45.5614 -46.7667 49.4715 42.7236 -87.3623 450.476
20189 2 -9.59238 -27.3332 -16.5826 -369.87 30.1121 191.209 -102.793 -61.0252 20.7438 -76.9396 542.712
5485 1 -10.5676 -26.8174 -15.3661 600.181 40.9597 -392.904 209.43 69.858 24.8315 -383.444 944.28
7966 2 -11.5145 -25.8009 -16.2173 -173.316 -110.177 179.088 -126.065 -13.524 -12.8757 -77.3771 393.253
100 1 -10.1416 -28.2151 -20.8123 474.379 -217.759 -64.2333 248.832 -302.696 -108.592 -351.737 944.652
12577 1 -7.16633 -26.3415 -18.3226 413.243 -108.43 -59.8586 1.15963 -121.292 -149.547 -364.353 600.33
7858 2 -5.16673 -31.2365 -18.6841 -325.378 81.8479 -50.7159 64.0261 126.291 -51.1197 -74.119 444.307
482 1 -6.90857 -27.8522 -20.4987 434.42 -218.16 -35.5237 -93.1473 -120.7 -54.7189 -349.638 647.108
5169 2 -6.70955 -29.9475 -17.1059 -426.31 123.869 100.626 11.6955 58.9012 -47.4276 -75.098 554.992
12674 1 -5.63164 -29.7281 -18.3124 618.114 -258.035 58.9684 -195.132 -230.707 55.0507 -382.183 934.551
10073 2 -6.21344 -29.0875 -19.6727 -299.127 141.731 -14.1314 75.7694 83.8767 -0.333145 -87.8326 433.895
10185 2 -4.42363 -28.8394 -17.9413 -167.983 16.3692 -68.2203 159.859 164.069 -10.295 -64.4772 428.119
10085 2 -1.90858 -28.3592 -17.1742 -18.2497 -166.621 -84.3588 141.921 175.468 -12.4719 -50.3886 412.11
12784 1 -3.2311 -27.7523 -17.803 68.065 263.449 102.791 -318.484 -362.212 -7.44315 -414.811 854.781
10446 2 -6.48282 -26.4662 -19.7208 -149.223 57.5432 7.01884 50.4177 34.5126 26.8075 -87.1849 219.576
5482 2 -3.03177 -27.0534 -19.2847 4.36957 -151.868 -44.0626 166.121 129.281 -26.6049 -66.3179 392.737
5483 2 -3.94101 -26.6056 -16.8836 -37.9551 -137.245 27.4937 85.8504 154.578 55.6135 -63.2444 351.728
8055 1 -5.24312 -26.391 -15.865 219.564 162.223 -264.254 -113.187 -243.261 -141.89 -407.434 697.127
3080 2 -6.50864 -26.3513 -16.9096 -195.519 -19.944 74.295 43.6273 88.5281 78.8929 -74.7647 322.719
12688 1 -3.05694 -26.6076 -20.826 -5.76761 196.349 138.726 -331.712 -205.243 59.3269 -391.343 706.794
3092 2 -5.37821 -27.5228 -14.7971 -161.655 -3.86138 209.103 77.6071 106.902 -9.95259 -54.9951 395.609
13090 2 -1.17751 -27.2316 -15.0133 -77.4576 -160.445 -4.13075 33.2337 60.5226 -55.686 -60.3663 204.827
13131 1 4.60133 -31.2705 -18.1857 540.267 53.9745 -68.9961 78.295 -51.2493 51.7758 -408.647 587.974
20181 2 3.30292 -31.1299 -19.1108 -181.306 -51.3153 -13.9968 -10.691 94.2555 -28.9995 -50.0466 229.477
19699 2 0.669007 -30.5811 -18.7758 32.1544 -35.2636 -123.307 29.9475 58.3385 6.95261 -31.9249 176.857
12880 1 1.96906 -30.3552 -19.6754 161.166 129.319 154.85 15.8188 -162.021 -15.3443 -448.101 284.715
20466 2 4.43289 -30.2034 -16.9513 -270.346 -7.47553 3.73365 -84.0811 5.9271 -49.6077 -71.6136 317.601
12999 1 4.6034 -29.8584 -15.3999 467.122 -12.9648 88.0194 202.91 122.348 85.5043 -375.152 618.512
25355 2 2.56613 -28.8531 -19.6533 -100.407 -68.9016 -27.7228 -83.3581 59.1318 25.2461 -56.8096 192.959
15108 2 0.740398 -28.6469 -15.7952 -13.4344 -131.327 -81.3669 -53.5038 39.8294 -72.5389 -53.9642 199.092
10274 1 -0.585054 -27.8816 -16.3934 42.8427 370.973 92.886 -92.7195 -214.485 104.525 -424.778 538.824
17750 1 2.96766 -27.3115 -19.6805 133.177 204.436 -25.4941 193.413 -78.547 -25.8339 -398.249 417.49
10643 2 4.35595 -27.2155 -18.8068 -128.531 -60.434 47.3365 -104.626 29.8874 -24.0931 -75.9919 246.681
17982 2 -0.0316171 -26.5624 -17.2265 -3.48629 -223.926 12.2126 23.3476 69.9195 -41.6715 -64.9432 271.683
10197 2 1.93783 -26.3444 -18.9142 -12.0702 -182.325 13.4884 -77.4468 39.9787 -7.22567 -70.3741 238.615
20175 1 0.797189 -25.5443 -18.0839 -39.7673 418.838 -84.844 46.634 -100.557 40.0764 -391.48 524.119
12771 1 5.08343 -25.6869 -15.2806 278.21 21.6059 -160.435 213.855 92.8879 94.8704 -363.939 579.47
12610 2 5.23363 -31.3252 -14.9246 -309.487 -39.4726 -77.8994 -30.3477 -69.9523 9.82827 -81.8358 285.905
15193 1 9.81454 -31.0142 -20.6055 355.475 -122.087 41.4653 102.477 132.479 39.4801 -395.933 515.307
27913 1 9.07576 -30.8934 -16.0489 232.793 4.62125 41.9148 80.9961 106.2 -20.1218 -380.513 315.713
17946 2 5.94212 -30.7754 -18.8257 -276.225 -10.2733 92.7525 -68.5506 -40.6761 -21.7197 -69.8964 359.473
22855 2 8.44593 -30.4414 -19.9913 -211.634 20.7187 48.4635 -62.0557 -80.9463 -4.52019 -71.8122 304.098
20275 2 7.81134 -30.1147 -16.61 -183.294 14.6395 2.61944 -30.8408 -65.7385 -29.2689 -81.3986 235.226
13154 1 6.88639 -30.1682 -20.0358 461.777 6.80632 -158.886 157.653 116.125 18.748 -391.721 652.618
13056 2 10.3634 -30.0363 -16.4078 -82.6871 -31.1495 -12.7594 -34.4026 -65.9007 -36.3301 -73.8805 156.464
14987 2 5.91251 -28.8719 -15.4081 -218.256 49.8838 -4.19267 -72.3051 -60.2549 -67.7449 -85.9595 317.281
13035 1 7.15946 -28.6853 -16.4775 365.079 -68.6737 -27.441 104.583 105.757 162.935 -366.191 563.885
17878 2 6.8748 -28.5931 -20.5133 -176.651 -24.409 75.0703 -87.205 -44.877 16.8744 -75.3774 279.157
7769 2 6.71273 -28.1275 -17.8749 -201.485 20.4457 59.4196 -75.3813 -45.1169 -64.1994 -81.3643 308.123
15647 2 8.42024 -27.6906 -15.951 -118.4 -10.3349 4.70045 -47.3734 -55.9267 -88.407 -83.3394 230.418
18064 1 9.68484 -26.9468 -15.3106 182.674 51.18 -68.0744 75.5741 114.059 115.276 -377.372 378.447
15170 1 5.73777 -26.9118 -18.1584 326.823 21.86 -89.8602 200.983 35.8681 105.385 -369.647 545.816
15534 2 8.90708 -26.7872 -20.5846 -80.2266 -46.8638 20.6994 -65.3958 -43.7627 44.7438 -78.5922 180.315
22656 2 5.61794 -26.383 -16.6161 -162.096 -10.9093 40.5819 -117.774 -43.6409 -71.1175 -85.5013 309.503
18302 1 9.98705 -25.9199 -19.6937 59.6998 111.295 26.2819 89.7926 109.902 -39.7269 -374.487 265.821
15562 2 6.44407 -25.666 -18.9379 -114.876 -46.4021 44.535 -81.0101 -25.6408 -28.9922 -85.4778 208.247
20263 2 9.61717 -25.3504 -15.8058 -78.7438 -9.17268 44.6243 -30.4084 -60.6844 -38.3306 -78.4899 172.356
10745 2 11.0485 -27.6908 -15.6618 -41.7503 -80.7599 -7.09052 -38.8619 -70.5731 -80.2809 -74.9905 207.081
17945 2 11.1135 -26.875 -19.1622 -38.0532 -69.9494 -30.7422 -32.61 -58.6035 2.83889 -77.7429 121.744
17975 2 12.6676 -30.0253 -15.4885 -39.0854 -71.7155 -13.128 -35.8157 -40.7305 -92.8284 -71.0642 193.034
288 2 16.5553 -29.7997 -17.8632 -121.089 -13.0154 -13.7628 15.6213 -41.6516 25.3899 -74.2909 139.536
20473 1 11.6536 -29.1039 -16.2813 50.4552 151.303 31.1204 72.4394 126.101 188.034 -390.27 426.627
5386 2 12.2755 -28.5692 -17.6064 -34.583 -78.738 -16.1046 -25.2051 -73.6914 -71.266 -71.2212 191.156
20381 2 12.9805 -28.3652 -20.1283 -53.889 -80.144 -6.89844 -37.0451 -22.5502 72.4246 -71.2124 159.718
12877 1 16.7843 -28.2185 -17.4065 145.456 43.8453 82.7959 34.5754 78.3238 28.8682 -378.419 179.929
17777 2 16.526 -27.9712 -15.7465 -85.2812 -29.4707 -47.3837 12.4995 -58.9097 -45.3956 -78.6046 139.635
20487 1 12.5342 -27.5067 -18.7722 44.0458 160.079 89.6485 33.8034 81.0482 23.9316 -386.032 187.362
15297 2 16.0035 -27.1123 -18.3068 -33.0152 -30.3119 -62.1643 -33.2783 -6.15859 -26.4141 -77.1112 80.4053
13151 2 13.5741 -26.3977 -18.2867 29.7358 -96.7313 -92.7666 2.93495 -17.5913 -41.7015 -76.5621 147.24
15169 1 15.0824 -25.7631 -18.2153 -67.6882 159.054 143.175 6.9609 -18.3736 97.3571 -376.641 278.67
22981 1 16.9136 -31.231 -18.6789 336.349 8.48261 11.1282 -107.95 86.9702 -90.4673 -391.568 434.557
27839 2 17.585 -30.9504 -20.0999 -146.994 -19.9457 -4.07883 50.3697 -58.6504 46.0131 -71.086 206.619
25346 1 19.8016 -30.67 -15.2921 161.951 136.328 206.857 -27.0185 230.589 -20.4295 -389.73 408.387
27957 2 19.7989 -29.6882 -16.5645 -87.0379 -63.8921 -73.9161 22.2776 -123.231 6.47757 -78.4296 218.121
25348 1 19.8486 -28.1963 -17.1788 127.013 96.3507 32.9233 -46.6502 249.618 5.4231 -371.297 447.719
15683 2 20.577 -27.9045 -18.5854 -55.4376 -49.06 -10.1109 7.73393 -106.285 0.29246 -82.5689 189.407
27836 2 22.7061 -27.8493 -19.862 -9.77023 -11.868 -54.6835 -45.5606 -35.0107 18.7107 -84.5562 113.5
10380 2 18.3178 -27.8514 -17.4853 -92.202 -29.6836 -33.6599 -1.12232 -95.9721 -23.2017 -81.7508 181.456
15447 1 21.0787 -27.7221 -20.1154 139.796 97.0438 -8.93564 27.3391 61.9822 -37.5345 -366.522 188.638
23049 2 20.4721 -27.561 -15.8058 -72.1627 -47.1281 6.29601 56.4139 -82.2527 41.9163 -80.374 199.833
3155 2 20.6837 -26.2428 -20.7447 -79.3368 -100.366 12.4961 -58.1041 -36.4364 9.16582 -88.1093 158.65
12696 2 23.0526 -26.6882 -17.484 -58.8484 -21.6091 -11.571 2.08487 -85.6714 73.4873 -83.4166 200.236
27748 1 28.6158 -31.0895 -17.1663 313.298 -180.066 -9.44306 -38.5503 66.4097 204.197 -356.117 575.43
405 2 23.2104 -29.3897 -17.9916 -54.2667 46.8107 -116.153 -103.871 -101.749 0.199142 -78.4547 289.358
27676 1 23.7661 -30.9118 -18.2863 174.003 -107.477 236.608 219.691 118.09 30.7462 -378.047 538.736
25455 1 26.572 -30.7099 -19.3728 209.098 -184.806 206.605 102.586 27.6826 116.872 -358.448 478.574
317 2 27.3585 -30.5463 -17.9966 -96.9446 99.8168 -61.9935 -37.5988 -18.1084 -88.7348 -86.5714 248.809
2885 2 24.9988 -30.4657 -19.177 -103.081 78.0225 -121.7 -73.4921 -55.4129 -26.1199 -84.155 252.941
25153 1 23.522 -27.8609 -18.4847 87.9531 -70.4148 183.75 102.5 182.042 -57.0354 -368.05 436.033
30 2 25.0287 -27.3211 -18.9271 -42.1703 57.1556 -99.9619 -27.7506 -92.0943 33.7601 -86.4803 223.874
5464 1 25.9984 -26.5616 -19.9601 37.9854 -103.019 149.283 22.7842 121.468 -85.0055 -351.362 339.796
2915 2 27.3604 -25.8699 -19.3881 5.0685 31.2312 -58.3244 0.839785 -15.0081 85.165 -94.1809 169.702
1038 2 27.0915 -29.8746 -20.6231 -128.303 117.03 -81.2361 -25.6998 2.90136 -50.9529 -89.0711 246.276
5577 2 32.6425 -30.9704 -20.5051 -243.348 197.901 -36.8912 93.9554 -86.4311 9.51697 -97.2907 442.032
503 2 29.7266 -30.2363 -16.5695 -214.553 181.936 13.3401 73.1209 -28.9704 -73.7888 -87.1299 392.013
25468 1 31.45 -29.9364 -20.2235 325.581 -376.813 92.5222 -169.935 118.066 10.3348 -336.755 716.065
27478 2 31.3428 -29.6321 -18.5982 -199.478 189.655 -46.9784 89.4671 -66.0989 -28.5139 -99.061 393.569
2869 1 30.8619 -29.2327 -17.139 486.607 -438.586 -15.0218 -157.44 65.2154 94.6466 -350.577 870.348
12871 2 31.9711 -29.0305 -15.9765 -307.204 183.636 108.186 61.6671 -6.63248 -71.7621 -89.1545 486.388
25088 2 34.3147 -28.3193 -18.5291 -197.482 110.986 -36.9781 80.732 -78.116 36.2724 -104.028 336.467
2724 2 30.0336 -27.868 -17.2588 -172.219 198.766 -29.8367 8.53435 -45.9181 28.6301 -90.0861 337.764
27947 2 32.0815 -26.7392 -17.9012 -153.354 165.53 -38.1659 20.9039 -58.3502 82.7237 -104.264 332.082
5572 1 33.5346 -26.9032 -18.5212 297.344 -293.208 86.0369 -101.55 139.519 -224.574 -318.95 713.617
3101 2 33.452 -26.7501 -20.1667 -109.321 77.7515 17.3015 19.7612 -43.62 101.911 -108.619 255.693
22768 1 30.5153 -26.3838 -17.4392 264.366 -285.452 19.6244 43.1853 110.59 -158.915 -339.734 587.948
25845 2 29.7599 -25.5653 -18.5156 -59.5619 81.6634 -15.6418 -24.4191 -2.03093 107.307 -100.809 228.071
25134 2 30.1142 -30.6257 -20.8884 -130.419 154.759 -29.2008 42.7611 -37.6347 -17.8868 -92.5416 270.926
2611 2 30.316 -25.7313 -16.0314 -151.334 61.977 92.1331 -36.3905 -119.826 54.4353 -92.5903 329.82
101 2 33.9473 -30.3822 -14.9295 -359.804 105.06 102.159 81.5918 19.7326 -66.0488 -86.6612 498.984
3185 2 31.9914 -28.6154 -20.9925 -149.124 91.2783 22.7283 27.9758 -35.6392 16.6569 -102.316 230.225
22976 2 34.2816 -25.7449 -17.6496 -130.115 128.908 -56.7656 64.267 -61.3941 131.706 -107.343 359.46
28048 1 -22.6847 -24.176 -19.0243 -17.3311 92.6894 -4.15282 -157.705 170.799 -276.505 -327.574 634.289
7593 2 -22.0143 -24.0073 -17.6094 43.4271 -107.686 8.14528 64.2425 22.8039 136.07 -96.9209 297.044
25620 2 -21.4253 -23.8053 -19.9975 -4.92672 -42.2849 9.49062 105.574 -87.0453 98.9974 -99.98 296.162
27739 2 -23.9672 -23.1423 -19.0724 28.9889 -73.2905 8.77206 74.1723 -100.307 95.4079 -108.175 287.748
414 2 -20.6241 -23.012 -15.5518 81.5806 -191.771 48.8923 60.8384 141.711 68.426 -86.3451 390.193
27856 1 -21.113 -22.783 -17.0692 -159.959 287.08 -75.5417 -228.165 -138.69 -184.24 -348.993 696.382
28220 2 -19.788 -22.1372 -17.8399 105.492 -121.021 57.7353 148.232 51.7562 57.5642 -90.6523 355.903
28040 2 -23.928 -21.8491 -15.4828 3.26485 -151.962 73.5766 97.8771 24.044 133.695 -96.6054 352.208
3082 2 -22.2113 -21.5898 -17.2356 57.2101 -105.052 6.98767 145.291 -1.04529 86.9923 -97.9625 326.706
27670 2 -24.7439 -21.062 -17.9105 41.6089 -10.1316 -17.5603 100.484 -23.9062 64.6177 -103.453 218.285
2703 1 -23.5732 -20.9543 -16.7168 -50.6091 56.3589 0.781496 -231.022 11.0991 -231.615 -338.063 574.461
22856 2 -24.8325 -24.1469 -15.6628 -84.1683 -108.288 85.5195 93.0254 5.66133 65.4187 -98.2157 269.007
481 1 -19.0617 -20.7023 -17.723 -210.989 324.303 -115.333 -209.627 -117.835 -81.9275 -348.141 661.896
5683 2 -20.2785 -19.5836 -17.9294 71.9681 -73.4519 27.0414 77.1131 27.2023 51.0548 -95 210.977
5563 2 -15.2147 -25.5799 -17.0193 8.86126 -197.368 75.7543 63.1456 40.5479 -10.2451 -70.9237 279.303
18235 2 -14.7039 -24.6389 -19.4503 26.6076 -248.081 145.988 -4.29739 36.2381 113.405 -81.5976 406.294
5282 1 -14.569 -24.45 -17.8323 14.1703 420.815 -271.056 -0.706593 -59.627 -86.9667 -375.592 629.331
28136 2 -15.0863 -22.9683 -17.4319 -25.0258 -172.147 110.501 -29.7064 42.122 34.6941 -87.4826 267.455
5558 1 -14.6511 -21.4637 -17.3612 17.1312 290.391 -178.018 62.1087 -110.324 -56.3678 -346.721 472.968
24 2 -15.0863 -20.8721 -15.9204 -6.64422 -157.333 107.014 -5.06219 73.5696 -27.137 -94.4666 266.975
15263 2 -15.3798 -20.8074 -18.682 31.3582 -145.813 49.6772 -10.7788 59.5214 85.0206 -96.1536 260.064
8252 2 -18.3929 -20.7041 -16.2092 86.0348 -187.85 76.1495 66.3983 67.2636 -8.70346 -90.636 315.325
5751 1 -16.6368 -20.4288 -19.5967 -140.137 286.651 -100.46 -45.2027 -141.225 -241.514 -341.352 638.544
3107 2 -17.971 -20.3367 -18.7407 90.3719 -175.988 35.296 58.5175 77.6204 85.6359 -96.7767 331.148
7777 1 -17.9189 -19.7636 -15.0026 -78.2649 295.936 -158.217 -33.9167 -65.5664 8.70224 -357.239 439.217
8064 2 -17.6927 -24.3296 -14.8245 22.1109 -142.446 -40.7254 36.9615 140.643 47.497 -81.4241 301.488
417 2 -17.137 -21.3785 -20.8218 75.526 -155.711 52.1526 39.5042 41.8544 178.486 -95.2042 392.582
2828 2 -13.0794 -20.9892 -17.3148 5.78377 -110.093 96.1632 -24.1493 29.863 32.8063 -93.6955 199.305
12307 2 -8.47512 -25.4767 -18.6882 -217.012 42.9218 57.1256 -35.4963 57.488 53.7217 -90.5455 306.288
396 2 -12.9845 -24.2845 -17.5657 -27.8349 -208.991 156.484 -93.6544 29.6354 42.3123 -82.8816 366.744
3105 2 -10.5961 -24.2399 -18.1101 -104.35 -105.823 160.454 -73.4888 11.9252 44.3242 -88.8458 305.017