ITEM: TIMESTEP
800000
ITEM: NUMBER OF ATOMS
29952
ITEM: BOX BOUNDS pp pp pp
-2.5151511364899502e+01 3.5136805706892048e+01
-8.6284044147784371e+01 9.6269338489784374e+01
-2.0980622470386777e+01 3.4848475616542608e+01
ITEM: ATOMS id type x y z v_StrAtomXX v_StrAtomYY v_StrAtomZZ v_StrAtomXY v_StrAtomXZ v_StrAtomYZ c_PEAtom v_VMS
120 2 -21.0008 -84.676 -18.4353 -171.659 115.739 -55.8678 -171.633 -142.76 14.1437 -98.3285 461.347
444 2 -21.057 -84.9711 -15.8243 -228.251 197.163 -147.217 -90.2295 -169.868 -46.1369 -114.712 520.045
4994 1 -20.4669 -84.1001 -17.101 469.129 -329.193 210.442 264.424 388.24 -36.8607 -317.804 1078.77
5278 2 -20.995 -82.6283 -16.495 -242.715 175.858 -169.323 -97.9816 -112.887 -55.7958 -109.139 475.648
25465 1 -21.5781 -82.3784 -15.1198 474.594 -378.339 507.814 191.847 115.995 114.103 -306.836 973.022
7767 1 -19.6041 -85.553 -18.7806 414.106 -312.527 173.233 438.098 456.147 -104.857 -332.046 1282.18
7320 2 -19.0403 -84.5188 -17.703 -186.009 192.01 -121.869 -140.944 -244.339 59.2028 -101.198 609.903
429 2 -22.6266 -83.4657 -14.7422 -121.925 182.713 -277.564 -46.3779 -60.1921 -88.5157 -111.561 453.066
2805 2 -18.9636 -85.8753 -20.1811 -213.708 160.22 -97.0282 -220.574 -183.909 32.9331 -97.7133 600.405
5189 2 -22.4187 -49.737 -15.4407 -421.484 355.413 -242.961 -128.635 36.1973 -133.007 -23.9366 776.781
516 2 -23.3741 -48.5686 -17.8741 -457.286 349.047 -333.467 -151.788 -7.34231 -79.2842 -44.6328 808.581
22681 1 -22.8506 -48.4881 -16.1978 877.666 -528.215 521.208 297.936 -55.3972 250.059 -460.573 1437.19
10469 2 -21.7729 -47.3589 -16.889 -319.942 147.749 -273.541 -167.286 64.0828 -81.9444 -42.3989 561.787
25007 2 -24.0452 -47.5033 -15.6274 -488.14 204.506 -181.959 -112.008 8.13872 -135.561 -45.088 674.09
25201 1 -22.6524 -47.2079 -18.2556 751.258 -402.531 608.691 391.169 -15.0856 190.179 -428.234 1324.87
3102 2 -22.5139 -46.6985 -19.7656 -345.716 228.621 -289.683 -188.59 -9.11374 -103.271 -55.8904 663.147
5304 2 -23.7562 -46.1549 -17.7341 -427.24 179.174 -249.699 -176.065 25.9127 -115.332 -62.9205 653.078
2993 2 -23.987 -44.3187 -19.9071 -379.343 219.011 -191.407 -113.451 -22.3752 -127.134 -72.2846 607.864
5488 1 -23.7615 -45.837 -20.4651 779.014 -467.491 441.901 326.922 29.5016 243.894 -401.468 1322.46
111 1 -24.8596 -46.4095 -16.5022 989.023 -406.547 361.707 276.126 3.93173 238.328 -417.505 1365.6
25115 2 34.9569 -44.9029 -16.2675 -518.804 242.261 -121.761 -163.005 5.36786 -50.6831 -62.7688 722.628
25257 2 9.69663 -47.2038 -19.7538 -438.719 429.065 -371.117 100.259 -75.017 -30.0954 -10.6198 865.281
17930 1 10.1138 -45.8334 -19.2951 833.757 -571.467 610.924 -148.066 95.4165 109.042 -484.168 1356.44
10206 2 9.83999 -45.4311 -17.6587 -415.247 261.265 -329.981 103.669 -72.4475 -82.2845 -31.3563 689.606
22278 2 10.7166 -43.8574 -15.3882 -445.639 227.036 -231.526 116.884 -60.3494 -14.3029 -42.8383 637.834
20170 2 9.58535 -44.5747 -20.2509 -391.608 183.297 -229.251 75.1943 -43.7574 -44.4464 -37.5712 540.526
18038 1 10.9013 -44.7242 -16.6857 922.583 -483.492 597.313 -167.071 194.081 82.6802 -456.959 1357.48
17688 2 11.7409 -45.6899 -19.3178 -433.207 261.629 -339.307 5.90563 -88.6597 -13.6372 -28.5491 671.277
17899 2 12.2957 -45.639 -16.886 -502.219 322.166 -358.669 29.2061 -133.454 -60.4357 -29.6776 805.496
10094 1 12.7403 -45.0051 -18.2944 813.075 -485.342 691.824 -66.2723 290.729 61.7764 -463.357 1349.57
15176 2 14.1706 -44.5322 -18.7583 -357.113 237.821 -347.818 48.1386 -153.832 -13.7636 -37.2095 653.465
378 2 16.6462 -43.8012 -18.2014 -297.278 192.007 -336.058 27.1211 -139.182 2.32837 -36.3327 565.876
20469 2 11.713 -43.793 -17.7551 -374.772 165.209 -240.268 48.7809 -103.665 -23.8559 -46.6654 527.377
25246 2 22.7662 -45.4542 -19.2602 -399.344 317.126 -337.884 35.6373 34.5852 -87.8258 -38.9729 709.655
22253 2 19.0873 -45.0306 -17.8107 -286.88 304.593 -302.353 -20.4933 -72.0667 -111.715 -16.4972 643.05
17570 1 18.2293 -43.8787 -18.25 492.542 -376.236 621.906 11.805 244.749 40.2064 -471.851 1033.86
27664 1 22.1992 -44.8094 -20.6615 586.591 -459.978 655.788 5.5022 -132.612 -2.87308 -442.203 1106.97
24979 2 20.688 -44.4573 34.8623 -258.817 205.223 -320.418 -20.996 45.4852 21.5565 -43.6675 506.594
138 2 25.2565 -44.569 -19.2723 -360.834 258.269 -315.649 -17.0547 -15.6839 -53.0053 -57.0295 606.131
27553 1 23.7756 -44.1665 -18.8522 748.454 -488.499 607.543 1.28426 -18.8399 101.687 -426.547 1186.47
124 1 26.2691 -44.2584 -20.4968 515.533 -427.321 598.778 22.5252 70.1337 -5.54788 -408.877 995.37
2433 2 27.5529 -45.1575 -20.5989 -284.297 277.601 -329.597 -23.2706 -31.2769 -49.2616 -57.8951 595.882
5394 2 35.099 -46.4962 -20.0075 -431.066 278.784 -239.858 -118.166 27.3853 -95.5276 -67.1651 690.098
3000 2 34.2475 -47.0064 -17.4866 -463.119 275.072 -228.478 -48.3292 -8.28488 -139.729 -57.9241 701.825
9911 2 32.52 -46.6021 -19.6594 -380.998 314.459 -266.937 -4.83813 45.0493 -105.016 -60.2819 675.714
2596 1 33.9033 -46.3217 -18.8955 856.817 -537.838 436.909 119.799 -73.2386 219.999 -401.931 1319.13
2782 2 33.9538 -44.7838 -18.5209 -450.077 253.904 -167.538 -125.844 8.11308 -69.1066 -73.9696 662.231
24888 2 29.693 -43.8569 -20.363 -233.997 245.86 -267.467 -66.483 -17.488 -29.943 -70.1444 514.111
232 1 34.5217 -43.765 -17.3456 1000.93 -599.13 218.88 350.211 23.6583 54.4946 -392.649 1516.25
7681 1 -24.7471 -42.952 -19.7472 792.409 -571.67 284.76 211.386 80.2392 144.225 -385.938 1281.29
5084 2 -24.6495 -42.8385 -18.187 -414.286 294.531 -136.352 -124.638 -25.6042 -28.9417 -69.4129 658.596
7500 2 -8.67899 -39.1181 -18.3097 -425.525 64.114 -12.9222 73.0134 79.5236 -74.7533 -75.724 509.598
10198 2 -8.06604 -39.1421 -15.4249 -488.666 -31.3012 170.813 -24.4719 141.058 -67.3398 -61.0266 646.192
7513 1 -7.95256 -38.6554 -16.9227 996.511 -12.5054 -297.04 23.4021 -190.927 134.593 -391.026 1245.6
15292 1 -8.58776 -38.6346 -19.8633 781.618 -220.571 189.215 -61.9045 -225.896 190.19 -357.307 1017.21
20085 2 -9.56565 -37.6577 -20.6353 -293.478 122.456 -104.591 7.32885 136.547 -121.325 -90.4185 479.97
5466 2 -7.10287 -37.8095 -19.6478 -447.1 72.0795 -48.8528 -30.2675 129.341 -72.4469 -94.6076 538.579
12695 2 -5.18649 -38.8018 -20.0741 -301.552 85.0669 -161.449 -120.261 93.6567 -44.9088 -74.1727 436.681
7800 2 -6.39755 -38.6868 -17.5044 -478.571 7.68262 92.2434 -76.7829 148.191 -89.897 -73.5215 626.517
7766 1 -5.73981 -37.9594 -18.7679 762.393 -71.1507 99.7926 93.1986 -301.448 127.207 -374.76 963.713
22974 2 4.71881 -37.472 -16.9056 -286.036 16.1787 -93.5992 16.9725 -15.8043 20.9641 -64.7235 270.445
15177 2 7.11149 -41.3405 -19.663 -333.485 103.177 -188.843 69.6945 -87.1859 39.8769 -52.6763 436.557
23037 2 9.48398 -41.0376 -18.5748 -303.942 67.2013 -109.779 16.7125 -62.9354 30.8515 -63.066 344.906
20200 1 10.2691 -40.6993 -17.1654 507.257 -143.965 190.219 27.5412 49.1563 -39.2505 -409.481 576.444
20533 1 8.34019 -40.2957 -19.4063 653.262 -161.251 197.706 -15.0445 181.118 -87.5311 -407.253 788.658
20359 2 9.07075 -40.058 -16.3097 -246.591 71.7999 -116.206 -48.7296 -48.0555 59.1676 -63.0259 318.455
19896 2 7.95222 -39.1117 -18.3253 -295.79 76.2385 -60.1138 -60.5631 -118.282 64.4922 -66.2077 414.395
12567 1 8.18571 -38.8101 -16.7925 474.037 -153.524 191.237 166.345 234.37 -209.445 -396.866 822.032
12958 2 6.92777 -38.2565 -15.9788 -259.796 57.7111 -127.077 -57.9699 -119.294 95.0062 -72.9899 395.144
12867 1 5.45482 -37.8367 -15.5502 623.224 -82.2758 302.065 -18.3428 162.048 -96.194 -388.224 694.15
22956 2 9.21175 -37.6154 -16.5358 -154.257 40.4369 -43.3899 -65.2351 -79.9398 79.5416 -72.1214 282.012
22965 2 8.54169 -39.6025 -20.8296 -321.429 102.475 -89.7713 -36.9192 -67.2381 -2.38623 -64.9836 390.933
22762 2 11.2691 -41.5671 -16.2556 -302.715 107.205 -114.284 40.5204 -8.90231 23.2092 -58.5404 364.799
22754 1 15.2118 -43.3197 -18.5933 576.065 -300.934 578.237 -125.676 277.729 -38.2806 -443 1026.75
25446 2 11.1541 -39.3765 -17.9158 -152.857 5.21753 -47.5027 -6.96095 -57.4067 43.2066 -66.0153 187.258
15557 2 11.2204 -39.6964 -20.4217 -168.228 6.20591 -102.686 0.0265645 -57.6373 27.3992 -66.7777 188.437
19790 1 11.5434 -42.4598 -14.931 803.921 -322.651 273.163 -223.245 22.3174 -85.1975 -429.231 1061
20420 2 15.261 -42.315 -19.867 -230.867 60.6998 -185.851 33.2373 -121.417 29.1345 -55.0089 352.135
17771 2 14.7001 -42.3022 -17.3868 -267.755 85.0982 -174.873 88.552 -149.15 52.3372 -52.4138 445.912
22851 1 15.0936 -40.7865 -17.0272 450.551 -18.4965 144.803 -160.214 277.839 -182.754 -411.268 760.831
10086 2 16.6694 -40.6871 -17.5283 -191.703 -2.42509 -141.44 53.0839 -135.536 101.464 -61.9839 351.123
23047 2 14.6876 -40.2284 -15.6099 -241.786 -16.7436 16.6348 102.179 -150.811 89.0555 -64.1586 427.336
15093 2 14.3659 -39.7939 -18.068 -163.909 -25.1803 -79.8134 56.6613 -88.0033 67.8073 -66.7483 247.608
12682 2 14.891 -39.667 -20.3839 -145.027 -17.3233 -78.2451 40.0265 -91.79 34.6689 -66.823 214.309
17870 1 14.5721 -38.6889 -19.1873 256.103 -0.827999 139.536 -91.7365 122.762 -81.9172 -398.584 374.488
18027 1 11.563 -38.5752 -19.2064 247.286 -56.5794 155.75 28.0682 124.596 -48.9144 -401.832 359.182
20340 2 13.0808 -38.0909 -19.3485 -91.0988 28.0776 -88.2123 -0.39748 -43.1817 20.6442 -65.9323 144.015
19983 1 14.6065 -41.2342 -20.819 339.489 -0.50517 222.187 -64.4409 211.485 -66.3479 -413.198 499.315
20076 2 12.9938 -41.5036 -20.7436 -157.95 4.65799 -141.365 29.8956 -59.1775 25.2019 -59.5545 197.768
25056 2 18.6066 -43.518 -19.8313 -209.664 131.782 -285.687 0.825979 -128.703 44.9292 -42.8652 451.745
27756 2 17.2944 -37.9835 -15.1238 -184.658 -53.6807 -7.79422 97.1226 -197.31 34.6657 -74.669 417.095
2899 2 18.6236 -42.461 -17.3957 -186.456 59.713 -237.895 -25.3122 -120.078 10.07 -41.2271 348.412
25359 1 18.29 -40.9715 -17.5542 284.319 -5.60816 371.649 -11.7548 301.669 -183.443 -422.21 700.988
23145 2 19.0499 -40.5291 -18.9008 -78.3381 -3.56047 -178.655 2.64314 -132.74 104.291 -62.8137 329.648
15 1 20.054 -40.4036 -20.1675 143.966 -30.3503 308.353 -4.42759 87.2682 -180.667 -401.466 454.854
27450 2 21.5139 -39.8604 -19.908 -46.4623 46.9304 -191.677 15.3845 12.0513 90.5289 -72.1395 262.876
17562 2 18.5782 -39.7982 -16.4804 -140.683 3.41809 -120.368 9.1194 -167.992 98.3147 -60.0108 363.54
20257 1 18.3601 -38.2666 -16.2837 282.56 22.8217 165.114 -118.982 358.686 -191.334 -392.21 767.473
23050 2 20.104 -41.8183 -20.9287 -151.442 51.6804 -175.865 -18.2993 -9.23651 78.6967 -61.8432 258.178
20107 2 23.0232 -43.525 -20.078 -259.313 182.685 -301.301 -24.8625 60.1561 32.0057 -59.1884 481.11
2510 1 23.0749 -39.5231 -19.9516 232.959 -193.462 324.657 -13.0222 -38.0374 -147.113 -374.332 546.919
27731 2 23.8269 -43.0006 -17.7615 -360.152 220.335 -248.17 -20.4955 -19.1807 -46.4775 -56.8464 541.613
310 2 26.8022 -42.7505 -20.2083 -213.327 202.499 -282.363 -19.2717 -70.0801 46.6911 -72.7725 478.302
299 2 28.6356 -41.9154 -18.8084 -189.914 227.697 -195.86 -40.8438 -9.46582 46.9568 -72.8701 434.517
25358 1 27.1252 -41.5506 -19.232 347.508 -463.198 477.733 75.9515 116.928 -102.479 -380.609 932.526
27860 2 25.9944 -41.5512 -18.1425 -258.844 217.699 -227.902 -25.0413 -18.4507 29.731 -74.0764 467.824
27952 1 24.3248 -41.5122 -18.0338 561.613 -430.887 518.468 62.4856 25.0658 -45.3182 -392.275 981.762
27588 2 23.9125 -40.8083 -19.4704 -195.02 181.661 -246.707 -18.2473 14.0301 54.8967 -78.149 417.923
27573 2 23.811 -40.274 -17.1615 -227.848 113.162 -188.283 -36.3415 -30.1825 11.7696 -71.3576 333.874
17950 2 28.4539 -40.2562 -15.9326 -191.002 61.366 -39.1976 -43.5896 21.1945 -49.1177 -69.9544 250.418
2875 2 27.1606 -40.0836 -19.9261 -137.158 208.314 -202.339 -23.4826 -71.4581 46.8949 -84.3321 411.932
133 1 27.114 -39.2475 -15.9755 377.216 20.1724 5.98829 95.1827 -34.8392 95.2807 -386.196 436.808
22775 2 25.8462 -38.9911 -17.0159 -202.611 46.733 -117.376 -34.9061 8.44267 -21.2933 -82.9342 231.115
24955 2 23.6266 -38.5226 -18.8126 -133.181 97.3155 -219.419 -28.9921 -35.4971 62.4154 -87.6218 313.739
27652 1 24.3168 -38.7765 -17.3509 375.36 -185.891 363.915 116.449 67.5156 -27.7051 -367.759 604.458
27474 2 27.8544 -37.848 -16.3169 -114.577 -38.3042 -24.9942 -23.064 5.83088 -76.4657 -79.5701 162.015
25258 2 26.382 -39.3255 -14.5697 -302.23 -93.0691 117.402 -64.0113 -12.2778 -17.2614 -63.9463 381.716
22747 2 26.164 -37.6774 -19.9888 -95.7637 100.042 -122.751 -2.28928 -60.3222 16.4919 -93.7034 236.856
27747 1 26.8736 -38.8237 -20.8476 207.363 -277.799 227.162 20.3702 100.878 -55.943 -360.682 535.297
9802 2 33.5336 -42.5857 -16.8018 -493.796 312.874 -75.1924 -170.036 -21.684 15.9753 -71.7974 759.726
2622 2 34.0149 -42.3221 -19.9133 -393.011 310.489 -106.848 -135.216 -19.3631 -23.7311 -78.6104 658.142
112 1 29.7598 -42.2654 -19.8962 421.353 -496.29 385.81 102.786 28.5918 -57.0239 -383.48 924.455
22773 2 31.2695 -41.8542 -19.6846 -261.67 273.356 -129.357 -78.1083 26.1702 31.5669 -78.0327 506.276
193 1 32.6721 -41.4862 -20.396 643.138 -640.432 180.364 208.912 13.2241 -15.8376 -374.62 1183.18
28143 1 33.1362 -41.1125 -16.3193 945.249 -474.962 43.4644 251.355 -11.5145 -13.8084 -381.547 1319.09
2601 2 31.5166 -40.8773 -16.1381 -353.599 174.543 -41.6304 -88.4677 27.0882 -25.1586 -75.6549 488.952
28031 2 32.9136 -39.9768 -19.8484 -350.15 320 -69.3808 -67.2107 -35.5947 -18.2688 -83.3302 598.439
24924 2 33.6415 -39.8905 -17.2905 -432.869 241.911 -3.33562 -74.5804 -11.5641 -34.7843 -80.2812 608.855
12879 1 30.1067 -40.0099 -16.1494 441.731 -191.307 63.6704 106.571 -56.9215 106.627 -382.757 618.256
5202 2 30.0752 -39.5558 -17.721 -185.712 134.255 -71.2234 -47.8804 19.7532 -31.3062 -83.6187 299.736
27842 1 33.318 -38.9961 -18.6171 713.723 -576.937 86.5362 49.2141 87.5842 139.921 -364.46 1157.02
28042 2 30.539 -38.8588 -15.1008 -253.782 40.7806 28.2138 -28.6031 31.1946 -25.6628 -76.9154 300.953
25172 2 30.5034 -38.4398 -20.2921 -178.953 187.93 -82.1431 19.6999 -52.8343 0.457921 -91.2285 343.507
27579 1 30.4336 -38.3376 -18.7041 343.865 -321.609 176.433 16.2352 42.8124 83.5814 -352.76 621.863
5313 2 32.001 -38.117 -18.2182 -272.813 215.236 -31.2662 -0.402271 -19.7772 -80.6526 -90.2476 446.473
27744 2 34.3392 -37.9762 -19.3678 -323.726 289.083 -78.0748 44.2492 -80.9338 -70.6441 -85.9901 570.823
22883 2 33.9353 -40.6543 -14.9094 -506.54 182.032 -14.9286 -87.6396 45.2602 11.3603 -73.4913 637.87
7892 2 29.2931 -37.3241 -18.4129 -102.277 101.839 -127.685 20.9344 -33.3862 -36.0988 -92.7636 236.776
2768 2 -23.5401 -33.5295 -19.8074 -99.7656 40.6223 -68.1172 98.001 -80.2771 70.9979 -104.022 282.02
5592 2 -21.1364 -32.2925 -19.9486 -20.3793 -63.7977 -41.0626 91.233 -21.2168 104.942 -94.7573 246.525
195 1 -22.6931 -32.2662 -20.2482 68.0736 -25.0331 49.016 -228.402 168.702 -229.291 -324.704 637.859
28057 1 -19.5808 -31.9612 -19.6151 -53.5942 301.846 11.2345 -138.858 -102.463 -157.913 -365.253 521.199
5187 1 -24.8101 -34.1768 -19.3258 358.904 -197.307 140.362 -150.644 133.14 -81.3672 -322.759 613.757
5364 2 34.9912 -35.4772 -19.9202 -222.235 163.45 -78.5225 73.2561 -71.0963 32.1214 -101.772 385.146
5398 2 -19.1519 -31.4324 -15.9551 -27.2981 -171.781 10.7728 27.8584 197.217 94.6353 -73.1547 416.78
13173 2 -19.1852 -33.0043 -18.4217 -38.1606 -110.656 -33.8206 43.2804 137.879 55.9036 -71.3542 278.596
3095 2 -14.372 -33.0499 -17.1131 5.08631 -42.7239 37.8031 -28.1781 41.6268 21.652 -49.8665 117.929
7969 1 -15.5118 -32.1392 -16.5695 39.7757 304.486 -94.4661 -63.7058 -162.388 -35.6 -414.042 467.669
3066 2 -17.032 -32.1944 -17.1612 -58.7379 -184.045 25.5567 61.4104 120.644 51.9424 -65.4031 310.552
5474 1 -18.5389 -31.9023 -17.3558 59.3498 396.213 -55.0646 -101.627 -336.32 -150.514 -389.764 776.782
13079 2 -15.7943 -32.269 -14.9104 -75.6216 -129.285 -19.086 -7.445 170.46 2.01231 -63.5814 310.578
450 2 -18.9408 -31.6211 34.7302 82.7715 -134.001 -18.6148 106.896 -33.4331 87.3258 -88.2161 309.52
3120 2 -8.27407 -37.0989 -16.7421 -500.319 41.26 169.627 -57.8178 41.1284 -29.7144 -74.769 630.126
7718 1 -8.141 -35.511 -16.4835 982.208 -221.819 -378.526 199.105 -21.8376 44.7448 -388.718 1337.64
15286 2 -9.35903 -34.9203 -17.3325 -428.942 133.025 142.892 -103.266 13.2796 8.69865 -74.9111 595.145
7987 2 -8.32472 -35.1368 -14.9328 -496.129 77.5686 249.348 -132.147 25.5542 -7.28434 -65.8696 715.327
15097 1 -9.59278 -33.4479 -17.7476 759.403 -162.686 -260.648 240.649 -48.4347 -102.033 -375.016 1078.04
10499 2 -10.3711 -33.2851 -19.1682 -272.518 60.8115 79.1258 -131.345 105.734 86.88 -83.0064 474.854
10074 2 -8.10863 -33.0724 -18.1416 -333.244 80.7084 51.5413 -78.9142 47.3002 63.9037 -85.8598 444.723
20189 2 -9.88063 -32.5828 -16.4707 -385.622 18.5792 194.354 -124.735 -21.9199 38.3797 -76.8161 563.792
5485 1 -10.6695 -31.8906 -15.2248 643.22 82.8048 -453.131 208.159 0.778863 6.65441 -381.685 1015.76
100 1 -10.0813 -33.4519 -20.7095 459.261 -197.909 -97.6806 286.063 -316.025 -115.82 -347.787 980.512
5460 2 -8.50315 -33.1609 -20.8737 -229.349 114.264 51.8489 -67.5653 131.403 47.6279 -97.2786 415.716
12577 1 -7.21992 -31.7433 -18.2904 417.644 -89.9879 -61.6398 46.3523 -117.66 -173.73 -367.571 618.569
482 1 -6.93577 -33.2671 -20.4898 401.682 -186.277 -39.5498 -67.2758 -173.551 -53.0756 -350.379 627.171
10446 2 -6.49622 -31.9569 -19.6866 -144.574 55.2022 8.51968 37.7894 51.1822 42.1935 -84.8692 224.159
7858 2 -5.19511 -36.4678 -18.6076 -300.06 77.8166 -70.1607 51.1833 156.995 -46.3637 -74.8392 443.871
5169 2 -6.73579 -35.1222 -17.1256 -393.551 108.731 83.4217 -18.9271 71.0482 -27.0376 -74.4261 508.553
12674 1 -5.62729 -34.9918 -18.2539 567.68 -226.854 93.8793 -153.806 -268.221 41.5305 -382.574 878.233
10073 2 -6.41576 -34.5085 -19.6378 -284.928 133.985 -15.4162 48.4449 111.221 4.87842 -89.1976 423.61
10185 2 -4.38658 -34.0609 -17.8501 -144.483 -9.62581 -87.5313 151.246 176.939 -11.7253 -64.3535 420.369
10085 2 -1.84336 -33.5317 -17.0813 -18.3445 -164.514 -88.6494 130.575 184.679 -45.2781 -51.4221 419.107
12784 1 -3.2125 -32.9641 -17.6822 55.2657 288.177 149.404 -304.368 -354.452 19.96 -414.51 834.989
5482 2 -3.13517 -32.384 -19.2365 -4.48202 -144.124 -77.8402 175.257 131.631 -34.229 -66.5393 402.837
5483 2 -3.89285 -31.925 -16.642 -25.5473 -170.742 0.0583671 69.7528 142.681 37.0767 -60.4087 324.42
8055 1 -5.23883 -31.6827 -15.7677 173.119 170.162 -231.215 -36.7965 -209.017 -160.8 -413.348 612.367
3080 2 -6.29102 -31.6806 -17.0197 -155.877 -48.237 45.4521 16.7214 75.7511 104.863 -72.7206 285.467
3092 2 -5.44662 -32.6949 -14.6181 -143.58 -23.3207 221.516 23.0983 94.0469 -9.30502 -53.0296 363.656
12688 1 -3.00378 -31.8815 -20.7224 -17.2957 239.549 172.98 -355.458 -230.414 76.832 -394.494 780.599
13090 2 -1.08318 -32.4529 -14.8562 -48.7922 -205.852 -16.6881 20.6385 63.7322 -86.9292 -58.7565 258.6
13131 1 4.6767 -36.211 -17.9134 543.767 52.447 -60.0974 76.8641 -32.8145 77.5499 -404.313 590.215
20181 2 3.58897 -36.1914 -19.0306 -183.133 -64.1411 -2.93032 -3.32855 82.2768 -34.1485 -51.9388 221.426
19699 2 1.1488 -35.5908 -18.4626 39.6984 -48.1675 -117.667 20.924 70.8042 -7.99072 -35.118 187.622
12880 1 2.23376 -35.4856 -19.5162 116.43 144.038 137.455 13.833 -147.166 -2.80812 -446.891 257.283
20466 2 4.35516 -35.0948 -16.7933 -238.278 -19.5669 -14.5886 -81.4111 3.07292 -49.5759 -73.1726 276.103
12999 1 4.60404 -34.9287 -15.2383 446.295 -5.8032 114.569 174.628 129.286 66.348 -369.65 565.065
15108 2 0.703238 -33.9644 -15.5945 30.4527 -142.474 -100.771 -28.1025 59.6067 -83.5291 -53.1636 241.642
25355 2 2.57383 -33.8776 -19.7348 -79.0317 -90.6683 -40.8791 -83.2871 45.4844 18.6811 -56.2087 173.49
10274 1 -0.539769 -33.1124 -16.2541 -7.62781 414.394 119.453 -94.4847 -242.36 157.498 -425.63 646.556
17750 1 3.1031 -32.3545 -19.6268 97.986 225.676 -11.9192 211.526 -90.5584 1.20604 -398.868 448.614
10643 2 4.47128 -32.2595 -18.8085 -139.637 -53.3021 41.4087 -106.99 15.3737 -34.1011 -76.1605 251.274
17982 2 0.131143 -31.88 -17.1142 33.4201 -248.376 -20.2977 17.0587 79.7619 -76.7841 -63.2278 323.734
17780 2 10.6726 -37.2539 -19.4448 -165.879 87.7927 -37.4757 -31.9202 -62.4363 -1.09234 -67.5476 251.037
15193 1 9.91876 -36.3271 -20.4834 337.72 -148.216 45.1829 85.6105 95.0523 61.3921 -394.485 489.854
27913 1 9.27134 -36.1555 -15.9962 170.971 -22.3058 86.1142 79.4246 145.5 -24.2958 -379.323 335.204
17946 2 6.12701 -35.8629 -18.6511 -260.036 -10.5421 102.893 -74.4539 -63.8305 -32.4484 -70.5257 368.006
22855 2 8.51945 -35.753 -19.9377 -198.855 11.559 52.7737 -63.5817 -65.2971 -23.8999 -72.049 285.092
13154 1 6.93922 -35.3455 -20.0046 427.776 36.7686 -195.918 152.835 136.854 24.2809 -391.663 652.719
20275 2 7.9398 -35.298 -16.5527 -142.777 15.5783 -11.1912 -36.9598 -95.4914 -32.7805 -81.864 237.132
13056 2 10.6002 -35.4237 -16.4475 -59.8069 -20.7386 -20.2625 -28.8828 -74.3031 -33.4818 -75.2347 154.835
14987 2 6.11686 -34.2605 -15.3322 -205.93 35.4895 -18.5823 -54.473 -68.4888 -53.3933 -89.3573 282.276
13035 1 7.24087 -33.9043 -16.4202 304.321 -35.9881 -31.686 84.8865 139.894 148.961 -363.251 511.138
17878 2 7.07244 -33.8221 -20.4438 -199.867 -35.449 85.247 -64.8211 -50.1522 14.2109 -76.3233 286.709
7769 2 6.69606 -33.2959 -17.7648 -181.352 2.97294 68.9405 -62.6388 -57.7977 -61.2593 -82.0969 289.028
15647 2 8.40367 -32.8291 -16.1152 -83.6133 -28.8638 -3.24795 -48.0481 -81.0664 -82.6443 -85.5621 228.446
18064 1 9.61915 -32.2552 -15.3204 104.283 63.9164 16.6531 80.4586 178.898 135.076 -370.257 419.454
15170 1 5.86536 -32.0059 -18.1382 297.401 23.8497 -110.781 182.119 50.9116 125.401 -368.757 533.14
15534 2 9.09336 -31.9665 -20.4465 -68.5086 -53.699 47.9213 -70.5379 -31.5315 49.0251 -80.8013 192.797
22656 2 5.64272 -31.4666 -16.6119 -151.148 -4.57964 41.161 -100.169 -46.6141 -98.2697 -86.9617 309.629
28013 2 15.5245 -37.4752 -18.8099 -128.497 19.4086 -33.1756 49.8509 -54.0954 51.2783 -70.5355 202.451
10745 2 10.9447 -33.04 -15.8833 -5.80944 -69.4582 -37.3323 -37.5136 -100.693 -85.8203 -79.1177 244.485
17945 2 11.3996 -32.2387 -19.2094 -25.9349 -74.8118 -12.9906 -30.6429 -37.9078 5.18696 -80.1079 101.97
17975 2 12.6955 -35.1224 -15.2368 -9.53534 -59.9054 -34.6621 -37.521 -47.6973 -112.445 -75.9594 225.572
288 2 16.6084 -35.1108 -17.8432 -80.5073 -6.15721 -31.4337 2.38775 -48.86 35.5674 -79.4119 123.538
20473 1 11.7706 -34.3779 -16.3343 15.5936 141.605 58.2847 52.2467 167.015 188.222 -382.829 458.776
5386 2 12.5862 -34.0413 -17.6922 -20.261 -76.3713 -29.1979 -14.5337 -49.9619 -46.1988 -75.1616 131.347
20381 2 13.2349 -33.7407 -20.2031 -55.4889 -69.8093 11.8172 -40.5689 1.32489 62.6211 -74.8967 149.686
17777 2 16.5163 -33.3579 -15.8104 -63.3819 -21.785 -57.7655 -9.65887 -68.3074 -56.5669 -85.6065 159.39
20487 1 12.8525 -32.9582 -18.8512 31.4444 147.683 69.0953 19.5707 19.8098 17.5941 -377.941 117.505
15297 2 15.9905 -32.3886 -18.3169 -18.8716 -8.50695 -81.8668 -34.0815 -6.56537 -30.2769 -83.4187 105.322
13151 2 13.7272 -31.7493 -18.2789 24.3833 -64.2468 -92.1494 6.00465 -2.12382 -42.1997 -82.3355 128.728
12877 1 16.7649 -33.5054 -17.3895 69.531 25.909 139.32 81.1832 86.2989 39.8992 -365.752 238.135
22981 1 16.8459 -36.5156 -18.5517 252.146 -19.5021 10.5797 -87.1756 108.383 -133.235 -384.669 421.688
20358 2 11.1141 -35.3179 -21.0588 -99.4841 -0.517305 -24.8334 -27.681 -40.3716 -9.37195 -72.4097 124.222
4920 2 17.8167 -37.371 -17.5243 -125.914 8.08073 -49.5125 68.3255 -110.575 91.0122 -76.1088 298.479
27653 2 19.8095 -37.5699 -15.9088 -45.3976 -38.0578 -127.914 6.72708 -209.24 62.5493 -71.2532 388.183
27839 2 17.5031 -36.4287 -20.0329 -107.76 -23.9648 12.5431 31.2412 -60.7342 73.1371 -73.6279 203.604
25346 1 19.8652 -36.0305 -15.4408 131.222 174.975 186.077 -59.2461 384.422 -67.0229 -375.894 685.472
27957 2 19.9281 -35.116 -16.7949 -22.6202 -69.8314 -99.003 6.38352 -191.627 37.7831 -86.4454 345
25348 1 19.9222 -33.532 -17.2315 34.6248 83.894 125.809 18.7751 320.527 -23.5161 -357.476 563.186
15683 2 20.5971 -33.0419 -18.5714 -19.8498 -24.4928 -51.4685 -42.4596 -117.884 15.7036 -88.8996 220.71
27836 2 22.8465 -33.1197 -19.7335 4.92728 -13.5703 -67.9998 -57.6471 -66.5725 12.3009 -90.4621 167.424
10380 2 18.3555 -33.1868 -17.4658 -25.534 -7.58688 -59.2118 -30.0443 -103.951 -15.5395 -87.4558 194.707
15447 1 21.2768 -32.9067 -20.0354 87.3699 49.3038 19.5031 124.237 81.7249 -32.0816 -358.715 270.001
23049 2 20.3161 -32.8704 -15.7854 -39.1769 -35.6733 -15.8002 40.509 -112.801 61.1464 -85.794 234.07
3155 2 21.0934 -31.4501 -20.7949 -61.7097 -17.6186 17.3211 -77.5682 -36.9047 25.3916 -87.7085 169.634
12696 2 23.204 -31.8191 -17.4603 -24.7131 10.4965 -50.2033 -2.00882 -82.508 115.626 -87.4036 251.655
20480 2 23.9805 -37.1687 -16.9281 -135.114 25.3207 -151.665 -101.365 -88.0846 24.9149 -84.896 290.916
27748 1 28.2735 -36.661 -17.252 117.391 -150.526 196.805 -37.2228 14.9922 39.7949 -362.38 330.067
25455 1 26.2853 -36.1599 -19.5349 106.957 -162.923 279.891 12.7472 169.833 24.6861 -342.071 488.117
317 2 27.0834 -36.0792 -18.1441 -18.8325 71.4543 -176.191 2.69664 -50.9431 -8.05204 -92.4075 234.783
2885 2 24.8159 -35.7275 -19.0887 -90.3565 58.1923 -170.883 -48.2295 -116.304 10.3028 -96.4903 297.305
27676 1 23.9002 -35.9291 -17.8057 158.166 -73.4428 414.858 170.239 221.506 -88.5931 -349.603 660.811
405 2 23.3819 -34.4458 -17.5282 -46.5156 10.9718 -156.798 -62.6513 -129.156 73.7753 -90.5622 316.156
25153 1 23.7209 -33.0646 -18.3618 42.245 -83.398 265.171 50.5719 223.082 -129.673 -352.19 548.549
30 2 25.1562 -32.6449 -18.895 0.630444 62.0009 -105.053 35.8848 -131.81 49.6941 -91.379 291.229
5464 1 26.099 -31.8962 -20.0055 -29.6256 -101.19 115.524 -103.089 202.775 -54.703 -346.673 448.096
1038 2 26.8566 -35.2597 -20.7285 -60.3317 97.3592 -63.5207 34.471 -68.741 -33.1295 -94.8801 215.436
399 1 34.0803 -36.7436 -20.3268 503.488 -452.666 115.249 -140.845 168.35 -7.34819 -342.003 915.665
503 2 29.2804 -35.5225 -16.6128 -125.028 132.023 -18.348 54.0331 5.48561 21.1022 -81.6135 245.395
5577 2 32.6052 -36.1461 -20.0813 -202.31 202.912 -82.0136 99.0821 -85.2671 11.5775 -101.564 426.139
101 2 33.9619 -35.4495 -15.0539 -397.476 107.272 154.287 31.5273 19.2558 -82.1051 -83.6168 552.295
25468 1 31.342 -35.1971 -19.9481 229.318 -382.15 159.84 -178.892 138.865 -36.8557 -329.556 702.972
27478 2 31.0462 -34.9311 -18.3458 -154.14 193.1 -53.5485 88.7184 -58.2912 8.5685 -98.1289 360.266
2869 1 30.4818 -34.5664 -16.852 396.92 -360.558 -41.4062 -113.395 28.561 -21.5334 -358.304 690.141
12871 2 31.5438 -34.5885 -15.7076 -294.942 140.352 123.102 12.6779 15.3644 -35.2948 -84.5701 432.663
25088 2 34.5101 -33.2684 -18.4986 -185.195 120.538 -29.1673 49.7735 -72.6404 77.2234 -108.804 333.567
2724 2 29.89 -33.0601 -16.9893 -134.175 126.915 5.25149 37.6395 -63.8467 84.0994 -91.1767 298.165
27947 2 32.0905 -32.0145 -17.6575 -143.47 123.836 -1.58526 36.5612 -78.6633 105.567 -107.853 331.156
5572 1 33.4964 -31.9113 -18.4303 259.697 -284.493 58.2122 -80.6198 133.462 -297.93 -307.176 752.539
3101 2 33.2586 -31.7348 -20.0467 -84.804 96.7491 28.658 14.6496 -39.3845 140.088 -116.208 299.01
22768 1 30.555 -31.6393 -17.1118 243.758 -171.838 -85.1602 -41.4849 199.534 -194.206 -332.793 618.032
25134 2 30.1642 -35.9865 -20.7598 -74.3601 152.408 -63.3805 64.0415 -63.4089 4.33758 -97.1421 271.066
3185 2 31.8855 -33.8873 -20.7147 -103.069 137.207 -18.6391 37.4544 -43.4183 52.7327 -108.821 250.561
10090 2 -23.1603 -30.9241 -19.5301 -26.5787 51.8974 -23.8994 83.9809 -90.5135 164.211 -108.63 364.126
28048 1 -22.8238 -29.4275 -19.0425 1.90216 19.2604 -40.6924 -139.516 156.96 -342.168 -316.74 697.42
7593 2 -22.081 -29.1474 -17.6139 42.1199 -87.6983 33.9862 61.3747 36.8252 168.268 -100.828 340.844
25620 2 -21.6165 -28.992 -19.9962 10.7523 -19.2006 27.7636 80.5522 -82.1755 137.181 -104.393 312.851
27739 2 -24.1404 -28.4761 -19.0403 -6.28356 -43.1905 32.2626 79.6635 -84.721 124.954 -116.388 302.791
414 2 -20.6557 -28.224 -15.6175 97.5466 -193.985 65.0548 46.8155 158.056 84.6517 -89.7534 423.782
27856 1 -21.1617 -27.9407 -17.0585 -167.32 280.561 -130.472 -206.195 -175.878 -220.303 -341.626 742.563
28220 2 -19.9397 -27.3099 -17.918 118.9 -110.63 56.5597 132.476 62.785 96.6473 -93.059 367.096
28040 2 -24.0926 -26.9813 -15.4334 -29.2816 -137.652 109.32 104.841 27.8892 137.662 -103.685 371.667
3082 2 -22.2375 -26.7155 -17.0124 48.885 -113.6 41.7438 150.625 40.5761 98.9273 -103.842 357.288
27670 2 -24.6491 -26.2982 -17.7875 6.25586 -14.3467 11.204 119.439 -11.9734 109.771 -111.742 282.714
2703 1 -23.5395 -25.9946 -16.6466 13.6337 51.4785 -92.6132 -254.725 -21.1399 -261.414 -323.782 646.335
22856 2 -25.0151 -29.3027 -15.6333 -105.158 -117.874 137.811 106.404 15.7705 92.9105 -103.634 350.563
25623 1 35.0251 -27.3791 -18.7382 -27.3708 96.8516 -56.7665 -149.257 79.6507 -108.453 -299.01 375.632
480 2 -19.0349 -30.8277 -18.5494 58.3793 -178.156 50.4761 61.9265 102.127 93.3701 -81.4481 350.842
481 1 -19.2146 -25.8237 -17.6356 -266.372 323.832 -112.106 -227.521 -126.239 -107.412 -343.642 720.284
5563 2 -15.1672 -30.5441 -16.9382 20.4039 -214.16 102.717 62.3152 30.4898 23.925 -72.4113 311.864
18235 2 -14.5832 -29.6935 -19.4052 23.828 -236.468 121.8 -8.60028 43.5998 143.481 -84.2312 412.964
5282 1 -14.544 -29.3618 -17.7844 -11.5728 397.569 -233.77 7.47038 -60.7543 -169.791 -371.606 636.716
28136 2 -15.1585 -27.8944 -17.4302 -0.0605736 -136.383 89.1762 -20.3795 27.9603 68.4241 -87.7594 237.38
5558 1 -14.7297 -26.368 -17.2747 -34.7562 249.896 -134.597 58.1334 -80.8314 -56.6459 -345.37 398.473
24 2 -15.1373 -25.8525 -15.8475 28.6215 -178.248 81.9937 2.25021 57.999 -46.9876 -94.9951 270.952
15263 2 -15.4127 -25.7298 -18.5966 50.3138 -133.453 36.0564 -5.87744 43.8004 79.0039 -96.7395 236.511
8252 2 -18.6016 -25.7293 -16.1907 111.946 -202.29 74.713 67.7316 64.6087 -12.6765 -93.5896 339.409
3107 2 -17.9542 -25.5706 -18.5804 128.552 -169.863 34.8497 68.9599 66.0353 97.1296 -96.6111 354.288
5751 1 -16.6547 -25.5134 -19.5391 -206.249 280.253 -81.4319 -68.3725 -109.799 -277.537 -342.739 687.614
417 2 -17.1493 -26.5705 -20.7171 103.73 -109.718 55.0914 32.8465 44.9927 213.862 -93.2362 429.027
279 1 -14.1102 -29.879 -20.8473 -85.809 419.831 -173.601 63.2986 -160.307 -363.595 -350.991 890.78
2828 2 -13.0987 -26.0377 -17.2492 14.265 -107.507 77.7526 -19.0708 29.3275 25.5083 -94.625 179.481
396 2 -13.0628 -29.2355 -17.2382 -12.0187 -198.484 141.3 -79.8292 52.8801 59.6378 -84.1911 353.612