ITEM: TIMESTEP
700000
ITEM: NUMBER OF ATOMS
29952
ITEM: BOX BOUNDS pp pp pp
-2.5151511364899502e+01 3.5136805706892048e+01
-8.3024162314970638e+01 9.3009456656970642e+01
-2.0980622470386777e+01 3.4848475616542608e+01
ITEM: ATOMS id type x y z v_StrAtomXX v_StrAtomYY v_StrAtomZZ v_StrAtomXY v_StrAtomXZ v_StrAtomYZ c_PEAtom v_VMS
120 2 -21.3946 -79.0623 -18.4308 -172.933 111.343 -48.4015 -191.836 -135.344 6.71904 -97.7151 475.829
444 2 -21.3632 -79.0629 -15.6932 -251.298 222.783 -125.306 -115.892 -158.265 -48.377 -116.702 550.775
4994 1 -20.9081 -78.3399 -17.0304 502.346 -327.798 189.885 319.268 385.116 2.72123 -316.246 1130.55
5309 2 -19.9603 -81.1623 -18.0046 -193.118 139.935 -50.2571 -246.262 -258.116 25.4245 -105.425 683.74
7767 1 -19.9242 -79.7203 -18.7684 439.274 -322.257 147.801 449.57 460.637 -60.8086 -332.556 1302.66
5278 2 -21.4492 -76.8919 -16.5213 -260.751 174.768 -150.237 -127.119 -110.605 -76.5434 -109.348 506.472
429 2 -22.8656 -77.6336 -14.5481 -147.768 199.561 -254.243 -83.4641 -53.3724 -92.5973 -114.497 473.417
2706 2 -19.6345 -82.0151 -15.3172 -100.995 158.548 -1.07731 -251.233 -242.701 -69.1905 -107.485 657.146
2606 1 -19.6516 -82.255 -16.9337 264.544 -240.261 -3.58239 534.554 552.993 59.762 -322.276 1405.96
7320 2 -19.4392 -78.7034 -17.6312 -187.87 180.121 -112.068 -159.642 -247.709 36.1979 -101.797 614.602
2805 2 -19.2766 -79.9043 -20.207 -220.977 159.005 -87.6342 -224.057 -178.936 10.4492 -95.8411 598.736
14878 2 -18.0096 -82.1389 -19.9645 -153.668 81.0273 -70.2226 -209.795 -153.318 -1.06965 -109.954 495
2954 1 -18.542 -81.0681 34.733 415.669 -227.865 167.869 415.428 288.988 -18.2239 -335.215 1041.8
7499 2 -13.3463 -81.9463 -19.5164 62.4178 35.8655 -207.403 -66.2125 -95.0014 -50.5231 -95.2439 337.979
10376 2 -1.48479 -81.0541 -19.3247 -282.891 197.652 -38.3626 -65.8518 44.293 10.1365 -118.19 438.648
7694 1 -1.10007 -81.9089 -20.7329 599.888 -329.788 -66.5167 -8.40374 -151.602 -41.2806 -286.891 873.571
12885 2 -0.987997 -82.203 -16.6803 -290.611 200.832 71.6584 -65.1754 64.544 -27.8354 -120.87 471.472
17678 1 -0.653397 -81.6677 -18.1445 651.202 -378.333 -74.0828 64.7218 -112.975 32.192 -287.105 945.114
17596 1 1.21351 -82.1491 -19.8834 531.767 -292.525 -34.6227 -95.4009 -46.2601 64.5261 -292.358 761.314
15396 2 0.868987 -81.3285 -18.5227 -301.118 205.355 -13.1 58.1794 71.4248 -19.8603 -118.571 469.296
25465 1 -21.9278 -76.5272 -15.1166 517.818 -415.287 457.11 254.75 98.6017 149.84 -305.406 1053.06
5189 2 -22.1583 -50.4265 -15.6374 -373.736 286.531 -210.559 -130.171 42.1908 -138.82 -25.3149 684.709
516 2 -23.1307 -49.4577 -18.1234 -415.196 315.338 -317.063 -158.816 -5.38784 -95.4097 -45.112 758.079
22681 1 -22.6782 -49.2823 -16.4711 783.659 -443.542 461.767 295.012 -48.1064 264.952 -459.972 1301.25
10469 2 -21.6324 -48.191 -17.2143 -309.916 111.674 -260.283 -143.72 75.8508 -98.7794 -42.4383 517.47
25007 2 -23.9299 -48.2737 -15.985 -439.781 175.982 -156.177 -121.627 11.7531 -138.454 -46.0456 622.305
25201 1 -22.4901 -48.003 -18.5471 640.128 -328.072 565.2 378.067 -15.8358 214.626 -426.936 1199.26
3102 2 -22.5257 -47.4794 -20.0708 -291.66 199.795 -267.325 -197.763 -5.95258 -111.498 -59.2347 620.397
5304 2 -23.5671 -46.9089 -17.9499 -361.374 148.201 -204.881 -176.718 16.3824 -117.428 -62.1536 583.329
111 1 -24.7721 -47.1665 -16.8559 903.457 -366.88 298.323 292.379 4.74755 241.726 -415.003 1281.81
5488 1 -23.6541 -46.5783 -20.6869 662.962 -410.207 399.071 341.848 28.1065 275.618 -393.49 1232.47
25257 2 9.17545 -47.8802 -19.7176 -395.543 364.4 -326.996 129.538 -41.7852 -16.7509 -15.3054 765.859
17930 1 9.98013 -46.6719 -19.4088 840.297 -570.531 607.159 -138.499 92.7157 64.271 -475.072 1345.96
17688 2 11.6523 -46.6083 -19.532 -453.987 267.041 -319.249 9.93826 -82.9852 0.573347 -35.6332 679.59
5394 2 35.1529 -47.3008 -20.3248 -387.598 262.026 -208.427 -118.644 2.10341 -107.146 -72.1092 643.742
3000 2 34.3465 -47.6749 -17.8626 -440.686 258.255 -182.557 -67.7165 -12.1582 -139.456 -63.1119 668.787
9911 2 32.5073 -47.3602 -19.9524 -382.758 298.148 -223.938 -3.62702 5.20988 -108.678 -69.189 645.189
2596 1 33.869 -47.0427 -19.2649 815.649 -506.195 347.706 113.12 -23.5178 226.599 -389.464 1241.69
2993 2 -24.0109 -45.1881 -19.9789 -342.925 201.907 -159.994 -121.935 -23.0342 -117.427 -75.4483 564.093
7681 1 -24.8978 -43.8314 -20.0593 772.651 -529.358 204.304 198.711 119.85 94.2097 -374.486 1210.96
5084 2 -24.7987 -43.5187 -18.4489 -395.951 273.841 -98.7303 -119.715 -43.5021 -12.5509 -73.1261 622.118
10206 2 9.92194 -46.2476 -17.7543 -420.283 260.478 -310.716 83.6701 -97.0419 -72.3599 -35.0555 682.504
20170 2 9.53454 -45.3752 -20.3028 -392.658 180.522 -229.633 40.6539 -25.1285 -8.48381 -39.8926 518.4
15177 2 7.21268 -42.1039 -19.362 -314.325 100.856 -204.624 60.8666 -63.3983 43.8905 -54.8224 409.653
23037 2 9.71705 -41.8882 -18.6116 -304.636 102.524 -133.597 -21.3143 -50.9409 28.6784 -66.2956 370.147
20200 1 10.6349 -41.3908 -17.3711 510.347 -163.889 160.43 79.1122 50.3759 -50.6972 -401.527 612.544
20533 1 8.45077 -41.0677 -19.2531 655.339 -160.586 225.927 15.7033 127.212 -88.3168 -399.729 756.603
20359 2 9.46822 -40.8714 -16.3846 -265.171 80.4656 -80.365 -60.2066 -21.8172 54.9996 -67.435 333.346
22278 2 10.8748 -44.4642 -15.7996 -442.206 212.243 -169.784 76.7396 -64.9223 6.56394 -47.3205 595.543
20065 1 6.71649 -43.2726 -20.2577 573.163 -205.129 517.896 -243.647 81.4783 -68.9298 -451.336 882.066
18038 1 11.0207 -45.4389 -17.0408 921.422 -456.504 498.948 -105.009 208.191 45.3533 -446.947 1290.08
17899 2 12.4416 -46.2192 -17.0602 -477.206 282.411 -292.158 21.618 -127.414 -43.1149 -37.3981 725.518
22762 2 11.6989 -42.1928 -16.4542 -291.906 96.2267 -57.2693 10.5196 -26.4251 40.4583 -61.6096 349.24
10094 1 12.7014 -45.7381 -18.6512 796.292 -442.795 646.445 -62.5043 262.085 21.6716 -447.332 1261.47
15176 2 14.1176 -45.2218 -19.0164 -324.5 207.435 -326.702 58.5132 -141.764 4.47116 -44.7717 595.612
378 2 16.5327 -44.7201 -18.0426 -281.02 176.759 -301.512 34.9265 -115.544 6.07346 -39.8975 513.015
20469 2 11.6584 -44.5441 -18.2037 -368.797 179.395 -254.891 20.1638 -93.6064 -8.39726 -52.1546 527.982
22754 1 15.1797 -44.0905 -18.5711 517.121 -260.83 556.477 -136.701 266.634 -59.0582 -434.304 957.695
19790 1 11.7056 -43.2095 -15.1995 807.93 -268.522 162.945 -139.149 28.6134 -109.029 -424.173 988.264
20420 2 15.2974 -43.0731 -19.8367 -218.595 61.0311 -186.835 40.5347 -133.975 26.9374 -57.7332 362.316
17771 2 14.6361 -43.0816 -17.4015 -246.688 61.2954 -152.788 82.8195 -140.406 69.4038 -54.6387 411
22851 1 15.1046 -41.6228 -17.036 411.759 7.11722 101.662 -127.041 259.067 -178.339 -413.109 692.529
10086 2 16.7118 -41.6239 -17.2113 -201.539 -6.66859 -115.12 40.3084 -117.74 94.5805 -60.041 319.22
23047 2 14.7184 -40.8903 -15.6398 -217.903 -31.9389 50.3027 65.9634 -129.432 91.9373 -63.3816 381.194
19983 1 14.7811 -42.1261 34.8651 341.146 -23.4926 215.075 -46.5502 269.859 -49.6021 -414.508 578.998
20076 2 13.086 -42.2149 34.7302 -157.565 23.4069 -134.866 6.8629 -83.4696 23.4679 -58.6706 227.713
25246 2 22.7601 -46.284 -19.2165 -375.39 258.411 -292.858 38.7765 41.2037 -76.1979 -44.5838 619.055
22253 2 19.1116 -45.9304 -17.8134 -291.879 254.377 -252.234 -27.3217 -63.8682 -92.8257 -23.4582 564.48
17570 1 18.1772 -44.7928 -18.1391 500.013 -333.728 533.103 -2.05982 200.18 17.9429 -462.588 919.24
25056 2 18.3824 -44.4239 -19.7675 -232.8 111.892 -236.655 -4.72447 -126.301 42.7506 -47.1119 416.607
2899 2 18.5818 -43.3832 -17.3849 -217.386 35.2595 -194.995 -31.6176 -83.0438 33.1203 -44.6387 292.665
25359 1 18.3474 -41.8514 -17.356 352.977 -11.952 289.389 12.7008 224.892 -172.997 -422.232 596.665
15 1 19.9143 -41.2889 -20.0921 229.211 -55.3947 210.306 7.53176 98.346 -140.206 -404.706 405.138
23145 2 18.9858 -41.3114 -18.7897 -131.445 6.50427 -137.093 -7.53997 -119.653 86.0647 -62.454 291.863
27664 1 22.1791 -45.7087 -20.6326 558.816 -354.396 593.771 -17.9994 -156.594 34.0325 -432.644 972.168
24979 2 20.603 -45.4413 -20.8381 -249.858 170.589 -285.254 -14.5956 29.7902 -6.11542 -48.201 443.085
23050 2 20.1936 -42.8102 -20.5003 -170.832 61.6367 -167.148 -25.3134 -13.6578 57.4151 -61.5294 256.067
20107 2 22.9031 -44.3062 -20.122 -228.533 126.718 -257.154 -21.2 62.7456 11.8947 -61.0007 388.296
14882 1 19.5049 -44.2996 -20.8512 450.127 -223.981 383.956 58.6657 96.7712 -90.5785 -427.67 690.816
138 2 25.2143 -45.2647 -19.3041 -297.226 196.505 -268.572 16.9983 -10.1813 -29.1266 -61.449 483.908
27553 1 23.7413 -44.9722 -18.8472 652.93 -354.902 511.964 -28.8279 -48.2315 44.2386 -419.703 953.347
124 1 26.2226 -44.9504 -20.5425 395.272 -300.089 501.275 -25.103 86.5282 -16.0903 -402.809 770.456
27731 2 23.7445 -43.7991 -17.7943 -310.791 171.492 -212.439 -6.81566 -12.9071 -9.50457 -59.7106 442.433
310 2 26.7154 -43.4883 -20.1704 -186.097 164.806 -218.288 -0.0506213 -74.377 38.6233 -74.3518 395.647
299 2 28.7703 -42.6551 -18.9392 -205.873 209.478 -132.125 -13.0433 -55.4467 49.2248 -78.5705 405.372
25358 1 27.1749 -42.3309 -19.0963 360.537 -408.052 364.414 14.5641 144.681 -102.67 -377.577 829.929
27860 2 25.9999 -42.3158 -18.0089 -238.15 184.595 -185.798 -10.3275 -34.6436 39.2269 -75.3811 409.706
27952 1 24.3412 -42.2765 -17.8971 514.614 -340.336 412.645 27.3739 28.8521 -69.2794 -393.307 820.551
27588 2 23.9054 -41.6276 -19.3849 -178.845 137.059 -181.327 -9.63468 28.0556 44.7683 -73.9931 330.512
27573 2 23.9254 -41.0228 -16.9797 -227.642 98.7999 -151.731 -21.6771 -41.3777 33.1333 -70.5866 312.067
2875 2 27.1809 -40.8936 -19.7994 -145.061 192.421 -141.442 -20.0304 -73.3394 27.5364 -83.3492 363.731
17950 2 28.4209 -40.859 -16.1217 -175.274 38.7976 -38.2691 -29.2402 -30.8546 -35.8656 -77.843 211.064
2433 2 27.4493 -45.958 -20.7433 -233.86 217.752 -278.875 -7.00072 -58.9342 -27.0516 -61.7969 488.95
25115 2 35.0483 -45.6609 -16.5802 -487.979 230.869 -82.7968 -157.583 -6.39836 -52.661 -64.0215 687.452
2782 2 33.9189 -45.4514 -18.7807 -437.247 240.658 -110.32 -113.66 -20.6626 -52.1621 -78.7923 626.905
232 1 34.4738 -44.5181 -17.5719 973.486 -577.838 151.958 318.158 67.165 20.3694 -386.907 1457.91
9802 2 33.4515 -43.4797 -16.8501 -488.94 295.034 -40.5756 -148.228 -39.1559 22.535 -75.3645 732.241
2622 2 33.8431 -43.3941 -20.3576 -385.214 298.835 -64.5065 -120.197 -47.3192 -5.70874 -85.6947 633.683
112 1 29.7374 -43.1221 -20.1255 440.672 -457.952 268.715 63.7739 122.991 -69.3356 -372.472 868.662
22773 2 31.2454 -42.6639 -20.1102 -262.084 269.193 -79.0004 -57.2366 -29.6699 41.6263 -84.7499 485.977
28143 1 33.0496 -41.9814 -16.429 913.697 -420.785 -10.8969 209.396 38.4165 -29.2528 -371.991 1241.13
2601 2 31.4307 -41.7817 -16.0202 -336.757 147.334 -17.4149 -59.2062 -12.9761 -12.4857 -80.3715 439.57
28031 2 33.1471 -40.9834 -20.0965 -360.033 323.125 -31.5825 -53.6701 -67.8903 2.70151 -88.3234 610.485
12879 1 30.0943 -40.8144 -16.2468 438.113 -152.478 38.1459 79.0276 29.9734 58.8587 -370.329 551.705
24924 2 33.4695 -40.8808 -17.5812 -425.083 225.202 14.3093 -57.4875 -42.7717 -21.8911 -85.9474 589.106
22883 2 33.8447 -41.3776 -15.0798 -493.716 160.129 15.6785 -64.499 24.1483 17.5641 -77.651 607.525
24888 2 29.5424 -44.5795 -20.5925 -247.511 198.549 -211.475 -68.5644 -71.3083 -18.1153 -76.7899 463.18
193 1 32.6973 -42.384 -20.7531 643.093 -613.996 88.3959 180.521 91.1047 -45.025 -361.137 1148.65
5187 1 -24.6059 -34.922 -19.4313 420.34 -202.514 86.9162 -198.443 160.656 -99.2147 -320.327 718.711
5364 2 -24.8225 -36.3415 -20.0172 -247.342 167.87 -56.1827 89.9353 -92.2752 48.0786 -100.88 431.642
7500 2 -8.63844 -40.0012 -18.3524 -413.403 66.4977 -34.1407 66.4678 73.3481 -97.0742 -75.0856 499.801
10198 2 -7.74815 -39.6948 -15.4499 -483.329 -59.9116 193.393 -53.0848 148.566 -81.839 -60.9144 667.43
7513 1 -7.74534 -39.4937 -17.096 995.862 31.2539 -254.989 31.0051 -194.635 173.432 -390.521 1222.82
15292 1 -8.51092 -39.4205 -19.8564 794.262 -191.292 188.78 -65.0448 -228.302 241.43 -359.076 1041.69
3120 2 -8.02162 -37.8993 -17.0507 -511.239 31.7299 158.129 -57.9458 43.3405 -45.4738 -74.7709 633.51
7718 1 -7.95227 -36.3668 -16.5932 1014.4 -237.512 -387.895 190.558 -27.4966 43.5513 -397.189 1376.62
15286 2 -9.15889 -35.6273 -17.3759 -465.239 132.607 152.601 -99.3666 -6.57608 2.04305 -72.008 632.089
7987 2 -8.22258 -36.1481 -14.9799 -498.511 60.0159 228.096 -133.303 44.0782 2.4194 -60.4627 702.308
20085 2 -9.48353 -38.4357 -20.7057 -293.051 110.416 -102.572 21.7249 142.019 -154.574 -89.5076 505.786
5465 2 -7.69628 -40.2475 34.7106 -422.901 223.227 -155.741 -17.0142 108.39 -57.0793 -83.0033 601.768
5466 2 -7.08772 -38.5368 -19.7884 -456.956 70.9328 -68.8269 -33.719 124.969 -116.866 -94.1619 561.833
12695 2 -5.21704 -39.4798 -20.3044 -299.876 67.9413 -170.544 -130.16 65.2795 -76.8164 -73.7666 430.996
7800 2 -6.27665 -39.6176 -17.7498 -471.408 -11.5788 45.0407 -73.396 159.766 -113.815 -72.6611 610.149
7766 1 -5.57621 -38.807 -18.8971 740.096 -36.8716 142.646 122.079 -293.781 186.398 -380.712 950.942
7858 2 -4.90148 -37.414 -18.611 -295.41 63.2114 -99.2108 39.3458 157.289 -82.8882 -67.5016 442.964
5169 2 -6.54168 -35.9406 -17.15 -415.916 111.792 92.7919 3.07578 90.503 -51.4376 -67.7635 548.952
12674 1 -5.43953 -35.903 -18.3174 624.601 -244.329 89.6444 -165.36 -289.434 106.957 -394.962 971.62
10073 2 -6.21324 -35.4625 -19.6361 -321.803 161.572 -45.7275 66.4382 105.45 -31.1773 -85.8762 475.329
10185 2 -4.14833 -35.0754 -17.9269 -175.908 10.8974 -80.4364 139.64 209.933 -40.7847 -54.7017 471.041
22974 2 4.84947 -38.2083 -17.132 -261.031 -21.5734 -93.1266 14.6089 2.81576 9.10214 -64.1681 215.032
13131 1 4.69013 -36.9202 -18.1808 472.277 120.365 -31.5869 76.0595 -73.4878 82.5173 -408.141 504.37
20181 2 3.45947 -36.9294 -19.1852 -146.469 -96.9987 -32.7975 -3.64144 100.375 -48.2738 -48.6977 216.798
19699 2 0.86369 -36.1023 -18.8746 56.1569 -92.6691 -127.247 17.7405 72.7274 -11.979 -29.2478 213.854
12880 1 2.16291 -36.0618 -19.7345 110.322 210.711 152.134 26.3377 -184.724 34.5541 -454.218 340.089
20466 2 4.49296 -35.8447 -16.978 -226.029 -40.3309 -27.2238 -83.0381 -5.75116 -50.1475 -69.078 255.772
12999 1 4.8061 -35.7078 -15.3837 429.151 52.3583 86.7143 191.427 131.57 47.1158 -382.283 546.564
15108 2 1.02949 -34.6696 -15.7647 -13.6892 -152.102 -96.052 -60.431 23.3618 -56.1874 -45.4282 191.326
25355 2 2.69565 -34.5645 -19.6342 -79.0234 -115.14 -24.66 -100.732 78.6364 0.286357 -51.6626 234.98
22965 2 8.52314 -40.4783 -20.7652 -325.218 84.2009 -90.8089 -37.8054 -49.8333 -3.94911 -66.1661 372.001
19896 2 8.38094 -39.7701 -18.2703 -293.055 57.8979 -56.652 -61.9874 -91.3716 54.4598 -72.7865 376.243
12567 1 8.5444 -39.5699 -16.7124 503.006 -118.903 144.756 145.401 155.855 -190.412 -386.401 733.063
12958 2 7.08954 -39.2037 -16.1028 -269.542 44.757 -114.794 -44.2795 -89.4634 77.5052 -74.6718 349.297
12867 1 5.65275 -38.6749 -15.7972 574.023 -14.1456 267.153 -28.2012 132.664 -77.075 -390.636 576.738
22956 2 9.45365 -38.3919 -16.1952 -174.802 37.8867 -33.3133 -49.4075 -38.2507 79.033 -77.3331 256.152
17780 2 10.7101 -38.0337 -19.623 -178.198 69.1595 -35.941 -23.1282 -64.2503 -26.8847 -71.2174 249.784
15193 1 9.94485 -37.1165 -20.7159 363.368 -115.238 48.972 61.2834 96.8223 120.092 -388.263 509.994
27913 1 9.35089 -36.8505 -16.0335 257.68 -11.9074 55.8164 41.8819 80.9534 -15.9298 -371.943 291.016
17946 2 6.11512 -36.541 -18.8378 -255.184 -22.7912 88.9122 -63.242 -25.1545 -40.441 -71.5103 333.537
22855 2 8.59385 -36.6077 -20.0696 -214.087 36.7811 45.1767 -52.5729 -54.4342 -39.9669 -74.9176 295.1
13154 1 7.03675 -36.143 -20.0891 446.283 21.2318 -157.834 121.421 72.8335 66.1214 -388.409 601.751
20275 2 7.99564 -36.3463 -16.6941 -191.464 24.2083 1.59374 -30.118 -59.8257 -23.961 -83.0318 239.436
13056 2 10.5591 -35.9691 -16.6191 -125.768 -10.3263 2.52082 -0.33666 -56.5427 -39.0063 -77.8243 170.678
14987 2 6.2456 -34.9565 -15.3897 -233.013 28.263 -10.4476 -52.101 -64.9519 -36.9814 -83.9 290.779
13035 1 7.37575 -34.8491 -16.5603 375.664 -79.1452 -20.567 57.3473 94.6839 149.74 -367.276 536.347
15557 2 11.4363 -40.4194 -20.6496 -182.092 35.8039 -108.381 -24.816 -69.7982 10.9536 -66.739 231.675
15093 2 14.4837 -40.6165 -18.1184 -152.728 -2.82008 -67.222 33.2834 -92.1755 52.5542 -65.5959 232.516
12682 2 15.0115 -40.6113 -20.5856 -169.634 5.66572 -96.5387 11.4624 -133.627 12.9329 -65.3334 278.79
25446 2 11.3615 -40.1107 -18.1163 -160.858 1.66934 -58.4453 -24.5839 -61.1683 41.6519 -69.1426 196.217
17870 1 14.6852 -39.5814 -19.3178 242.048 -42.1485 181.127 -41.7138 161.405 -41.1466 -400.94 394.487
18027 1 11.6664 -39.2879 -19.4705 265.388 -75.9204 180.056 33.6048 147.699 13.7985 -397.124 405.034
20340 2 13.232 -38.8949 -19.5836 -80.5033 29.3475 -97.5663 -7.35892 -74.9711 -4.59692 -66.4196 176.976
28013 2 15.7272 -38.4348 -18.855 -135.734 16.032 -35.9224 43.1736 -67.0466 36.0538 -68.6573 202.051
17975 2 12.7336 -36.1433 -15.3303 -42.9688 -57.4815 -31.8593 -13.6818 -28.4265 -87.6038 -75.7852 162.802
20473 1 11.8842 -35.1628 -16.2166 107.809 90.1581 39.7694 12.9524 119.239 179.315 -382.576 378.627
288 2 16.6076 -35.9118 -17.8488 -94.0798 3.03227 -9.77382 11.769 -47.2092 32.8846 -75.3619 136.737
5386 2 12.5962 -34.5652 -17.447 -41.2865 -53.1516 -9.27798 13.0314 -58.4292 -66.6371 -74.7107 160.056
22981 1 16.9829 -37.4045 -18.5204 297.879 -36.845 -21.0285 -105.617 101.872 -127.859 -390.438 469.722
20358 2 11.1486 -36.0425 34.6932 -110.235 -11.719 -26.3325 -18.6766 -49.9252 -28.8613 -74.3367 139.65
27450 2 21.424 -40.5403 -19.8362 -62.1975 33.5989 -123.417 4.31067 4.91466 67.9319 -68.0474 181.002
17562 2 18.7911 -40.6281 -16.3894 -170.909 5.44541 -90.2419 -3.13178 -129.442 90.196 -59.0283 313.182
27756 2 17.4935 -38.6751 -15.1442 -185.163 -48.2114 10.282 74.6053 -184.703 24.8567 -71.918 388.696
20257 1 18.5825 -39.0652 -16.298 308.87 -4.50121 128.276 -85.086 294.739 -168.588 -398.126 664.696
4920 2 17.9851 -38.2508 -17.5978 -164.076 19.7948 -23.2715 57.6919 -85.3366 75.3035 -72.1396 276.746
27653 2 19.9428 -38.3192 -15.8412 -79.5375 -12.5179 -111.935 10.2621 -166.84 46.2928 -68.9379 312.992
27839 2 17.5685 -37.0591 -19.9609 -138.659 -14.188 22.7324 38.6777 -62.223 62.8248 -72.7552 222.251
25346 1 19.8838 -36.7854 -15.2535 185.854 106.698 154.598 -87.6243 310.882 -19.2658 -381.624 564.677
27957 2 19.8741 -35.9035 -16.6613 -64.5811 -54.3665 -69.3422 24.1517 -141.925 16.4489 -83.1237 251.327
2510 1 23.0005 -40.3829 -19.9638 233.471 -152.711 222.658 -16.0481 -77.0448 -102.629 -387.628 441.878
133 1 27.1006 -39.8791 -16.0013 352.93 15.6814 4.80363 107.103 84.586 78.6778 -377.648 438.145
22775 2 25.8448 -39.6825 -17.1026 -184.558 68.4193 -105.24 -55.4583 -47.7187 -14.0146 -83.3336 258.593
24955 2 23.473 -39.3544 -18.7164 -129.226 105.95 -157.625 -21.2612 -14.5758 59.7323 -79.1963 274.755
27652 1 24.2506 -39.4931 -17.2504 379.561 -190.864 294.338 121.239 99.3897 -52.3862 -375.119 604.978
27474 2 27.7412 -38.45 -16.4011 -110.42 25.7862 -25.2178 -41.4257 -43.6093 -61.936 -81.464 191.228
22747 2 26.2078 -38.32 -19.9334 -113.984 95.3666 -91.4112 -23.2705 -61.0691 6.27237 -89.3794 229.222
20480 2 23.9838 -37.8937 -16.8089 -162.302 51.9324 -133.483 -112.314 -104.446 8.06149 -81.9017 333.643
27748 1 28.4807 -37.4277 -17.3478 121.716 -187.693 183.914 8.89662 93.4904 71.2326 -361.119 400.659
25455 1 26.4011 -36.8507 -19.4857 149.218 -167.695 225.682 102.293 192.519 34.8768 -349.601 526.065
317 2 27.4385 -36.662 -18.2719 -34.5255 79.4422 -148.19 -32.284 -82.8502 -15.2262 -90.6122 251.55
2885 2 24.969 -36.5 -18.7493 -111.38 41.8621 -136.986 -92.2512 -108.86 12.7616 -91.8892 299.389
27676 1 24.1203 -36.5538 -17.4161 261.711 -73.6043 291.277 214.017 244.709 -37.9193 -358.735 666.78
405 2 23.7293 -35.0648 -17.3388 -98.1245 5.60579 -90.7703 -77.8525 -123.894 50.6297 -88.9405 286.311
1038 2 26.8767 -35.967 -20.78 -71.5018 74.204 -57.666 -13.7799 -60.7961 -23.5736 -91.9841 180.917
27747 1 26.9758 -39.5367 -20.6457 214.235 -263.278 194.55 34.7154 102.089 -32.5595 -364.328 507.019
5202 2 30.295 -40.4552 -17.7917 -220.718 130.433 -43.7071 -47.6766 -36.1724 -33.9862 -88.3811 326.637
7892 2 29.523 -38.2456 -18.3455 -127.238 117.774 -90.8695 8.71488 -56.6175 -44.7306 -93.5163 261.323
503 2 29.4799 -36.3763 -16.6793 -133.189 143.182 -16.5638 44.4655 -18.4923 10.6304 -82.8586 255.043
27842 1 33.5017 -39.9793 -18.8862 727.174 -567.189 57.4371 17.0427 138.676 101.24 -356.045 1160.32
28042 2 30.4498 -39.5699 -15.2568 -244.703 38.4638 39.6193 -7.73148 -4.9989 -17.7283 -81.8462 285.848
25172 2 30.5553 -39.2578 -20.3347 -199.384 189.418 -49.3033 14.1036 -75.7024 11.4545 -94.3155 365.408
27579 1 30.6795 -39.3195 -18.7669 410.192 -361.011 87.1869 12.522 104.564 76.5801 -347.15 707.706
5313 2 32.2396 -39.0822 -18.5127 -294.024 220.518 -12.093 9.45083 -60.7023 -70.523 -94.1547 474.78
27744 2 34.5165 -38.9491 -19.5768 -323.706 294.81 -61.5499 44.5178 -85.021 -45.6242 -88.8984 568.345
399 1 34.3609 -37.607 -20.3491 564.663 -482.274 72.114 -169.964 176.668 -33.3064 -339.013 1003.31
5577 2 33.0026 -36.8413 -20.0174 -227.711 215.754 -46.7522 106.631 -82.7783 20.1852 -103.897 452.822
101 2 33.9305 -36.4709 -14.9173 -419.503 113.733 158.538 64.6219 15.2026 -45.8025 -85.7631 574.243
25468 1 31.6285 -35.956 -19.9757 277.888 -395.687 109.414 -178.106 163.208 -63.8952 -327.565 745.607
27478 2 31.3441 -35.6969 -18.3856 -170.594 184.451 -64.5893 91.6942 -57.5697 10.6446 -99.3233 367.647
2869 1 30.633 -35.3439 -16.9587 382.052 -322.485 -33.7607 -108.044 55.4052 -49.3441 -355.524 654.103
12871 2 31.6329 -35.2667 -15.6567 -286.681 127.907 133.545 24.5873 -0.0338397 -15.2166 -85.9417 420.429
3185 2 32.0476 -34.642 -20.7674 -117.504 127.792 4.24283 39.5323 -53.4831 48.8923 -107.883 256.065
25134 2 30.424 -36.752 -20.7003 -103.586 155.081 -51.5265 55.6923 -77.1003 13.541 -98.2667 289.554
2768 2 -23.3331 -34.1228 -19.7772 -118.314 41.6165 -48.2073 116.044 -90.367 80.8756 -104.35 322.18
5592 2 -21.0184 -32.9581 -20.0244 -27.4817 -56.7315 -36.5141 96.3644 -51.842 111.106 -94.2453 271.344
195 1 -22.5981 -32.7735 -20.3513 116.605 -28.2918 6.94548 -264.981 205.395 -248.598 -322.822 734.671
28057 1 -19.4855 -32.7669 -19.6835 12.6837 268.43 -28.286 -130.2 -39.8104 -167.438 -370.065 466.133
10090 2 -23.1026 -31.5417 -19.5418 -53.3562 40.3081 -2.0276 119.195 -101.401 151.02 -109.816 385.344
28048 1 -22.5878 -30.1514 -19.1217 52.9779 37.609 -67.4096 -197.748 156.437 -298.277 -317.027 685.942
7593 2 -21.8425 -29.8786 -17.7417 9.98646 -96.3171 53.5464 93.9019 27.1431 142.609 -101.824 327.878
25620 2 -21.4411 -29.8409 -20.1283 -27.0301 -51.0301 54.9271 98.3805 -86.7361 107.878 -104.354 309.482
27739 2 -23.8787 -29.141 -19.2297 -30.7635 -23.2213 53.2434 74.2622 -83.2814 87.125 -113.708 258.079
414 2 -20.4679 -28.8666 -15.7653 60.0673 -187.406 75.8995 91.0805 139.606 70.1876 -91.12 404.409
27856 1 -20.9841 -28.6281 -17.2613 -88.8876 277.76 -142.25 -272.434 -135.08 -193.959 -339.432 739.665
22856 2 -24.7602 -29.8247 -15.9191 -95.4843 -104.089 109.385 112.839 21.1712 88.4119 -105.803 326.804
13173 2 -19.1074 -33.7793 -18.408 -64.3391 -94.4012 -8.17507 35.0464 115.677 56.9932 -68.4558 243.556
5398 2 -19.0762 -32.3831 -15.8297 -52.0196 -167.286 -15.887 36.2342 189.51 68.6832 -71.6142 380.25
480 2 -18.9719 -31.6791 -18.5347 8.82224 -175.254 67.6225 63.0263 100.824 81.1077 -79.4808 332.136
3095 2 -14.5002 -33.8486 -17.1726 -16.3278 -52.5112 29.4514 -24.5682 43.1716 32.847 -44.8408 125.301
7969 1 -15.4594 -32.8696 -16.4977 7.44406 327.593 -44.8286 -52.7101 -173.954 -28.4424 -421.817 472.762
3066 2 -17.0125 -32.9158 -17.034 -71.4274 -188.147 13.302 61.9811 136.237 50.8745 -61.5593 325.059
5474 1 -18.5115 -32.7148 -17.3053 86.4875 375.224 -54.9873 -100.743 -325.212 -135.252 -395.141 739.493
5563 2 -15.0587 -31.3221 -16.8619 28.2342 -223.854 92.1157 53.1748 30.6326 5.08612 -67.5201 308.397
18235 2 -14.5122 -30.6002 -19.4018 23.1656 -240.797 133.455 0.36535 23.1996 129.07 -77.4189 403.168
5282 1 -14.3369 -30.2626 -17.7727 -5.92957 441.537 -265.974 19.3563 -38.5439 -113.89 -383.974 654.755
28136 2 -14.8848 -28.7375 -17.6269 -4.71236 -142.533 104.449 -20.9826 24.7626 57.4813 -83.1475 242.957
13079 2 -15.6054 -32.9696 -14.8737 -46.7077 -147.051 -59.6121 -5.38634 180.661 -16.6964 -61.2321 328.296
8064 2 -17.6192 -30.3627 -14.8312 7.8611 -161.13 -18.9295 29.3336 140.899 49.6482 -79.6438 307.054
279 1 -14.0521 -30.5641 -20.9278 -100.554 427.116 -133.43 63.0313 -156.407 -350.636 -358.297 866.608
396 2 -12.7969 -30.1481 -17.5062 -26.5544 -214.53 144.519 -89.5606 30.4856 38.3519 -79.1189 357.802
15097 1 -9.456 -34.1291 -17.8755 791.293 -160.811 -298.096 213.226 -7.99444 -98.9278 -381.193 1105.44
10499 2 -10.3969 -33.9066 -19.2223 -280.229 61.1898 95.1077 -121.596 83.3846 71.7021 -79.3794 458.189
10074 2 -7.9615 -33.6815 -18.2315 -347.121 93.8903 54.6201 -42.6495 27.0656 68.1168 -82.1083 447.536
20189 2 -9.80962 -33.2339 -16.6062 -394.901 3.46415 212.888 -102.523 -43.9407 38.7032 -73.1661 572.537
5485 1 -10.4868 -32.7763 -15.2275 692.704 102.475 -418.84 176.791 39.5827 21.1664 -388.506 1013.73
7966 2 -11.5844 -31.7201 -15.759 -178.75 -146.079 186.292 -105.917 18.874 -24.2463 -74.5989 398.603
12307 2 -8.19069 -31.3279 -19.0791 -207.138 52.1481 45.8982 -11.205 40.9546 64.0827 -88.0497 288.75
7708 1 -11.3538 -30.4227 -16.8459 252.863 348.278 -394.898 204.058 -49.2021 -24.3144 -373.108 790.228
3105 2 -10.4327 -30.4132 -18.1832 -147.713 -103.662 153.351 -71.6263 27.8147 41.851 -85.9418 319.819
12949 1 -9.33605 -30.2532 -19.3521 299.058 9.35205 -160.998 22.0392 -118.526 -104.53 -352.776 488.552
7895 2 -10.8146 -29.489 -15.6556 -141.199 -145.503 210.605 -63.3966 39.4215 -6.2235 -83.3285 377.008
5675 2 -8.47626 -28.9173 -19.0825 -117.898 -31.2184 59.0208 42.5959 31.68 28.1059 -91.7816 185.209
8070 2 -10.02 -30.3282 -20.8142 -85.5187 -1.14985 52.4898 -3.68278 102.376 94.0389 -94.6265 269.321
5301 2 -7.93557 -30.2421 -14.879 -153.498 -174.059 208.915 55.087 52.7928 9.43854 -77.165 396.169
100 1 -10.1752 -34.2643 -20.7194 475.04 -200.535 -52.0119 251.053 -296.311 -101.375 -354.048 928.136
12577 1 -7.04494 -32.3571 -18.5936 445.185 -102.532 -42.4019 -40.1153 -80.4664 -159.251 -370.798 609.105
482 1 -6.91945 -34.2363 -20.5352 477.333 -255.978 26.5416 -109.833 -151.168 -37.6441 -350.015 720.683
10085 2 -1.63818 -34.2764 -17.2252 -13.6677 -179.119 -86.1796 96.0798 201.183 -35.7824 -40.2465 416.646
12619 2 -6.81633 -29.2738 -16.9961 -122.957 -112.358 162.481 81.1764 79.4376 7.99518 -78.1219 342.715
12784 1 -3.07571 -33.8193 -17.7005 110.201 266.528 113.748 -256.59 -431.249 30.0628 -435.275 884.336
10446 2 -6.35208 -32.9303 -19.8535 -184.024 73.4067 -19.1307 70.6024 41.1347 41.5821 -85.2167 276.097
5482 2 -3.06808 -33.0796 -19.1746 -28.3746 -137.775 -95.0365 150.29 166.514 -21.1089 -59.6435 401.743
5483 2 -3.73385 -32.7723 -16.6419 -78.1478 -142.347 54.3597 70.3903 186.771 44.1235 -51.6822 394.388
8055 1 -5.20384 -32.3098 -16.0322 269.837 219.833 -293.867 -84.1465 -265.176 -133.445 -422.076 760.063
3080 2 -6.11851 -32.1839 -17.334 -189.001 -58.4559 73.0245 33.8379 86.8234 102.07 -69.7476 329.846
10098 2 -5.36653 -30.8437 -15.4124 -99.2399 -180.216 152.227 67.7584 105.534 38.5973 -63.4143 376.578
8138 1 -6.55167 -29.7447 -15.5094 207.047 363.621 -393.655 -185.566 -163.71 -29.4629 -389.218 815.919
12948 2 -1.79724 -29.3067 -20.3066 22.4075 -157.362 -19.726 25.9484 104.695 58.0057 -74.2975 267.423
13271 2 -3.41171 -28.5286 -15.0694 5.13236 -172.822 81.3857 73.6699 79.8167 -27.5474 -72.3638 297.863
15547 2 -1.55758 -30.5945 -15.0017 -55.5301 -131.742 18.8905 -9.84949 56.7854 -39.8909 -62.8547 178.205
3092 2 -5.63934 -33.4721 -15.0394 -197.793 -26.8211 238.407 34.5624 126.662 -1.70003 -48.4043 443.448
12688 1 -3.10439 -32.5728 -20.6936 13.1675 206.898 205.062 -326.577 -196.135 50.7872 -399.646 693.024
13090 2 -0.876767 -33.1488 -15.2313 -75.6848 -188.607 -4.25244 9.17837 75.6354 -50.9806 -49.5235 226.124
15279 1 -0.735907 -30.5661 -20.6266 -186.004 443.089 109.818 -19.0775 -197.073 4.72563 -401.204 644.083
10274 1 -0.220107 -33.8946 -16.5714 19.7066 399.575 132.327 -25.0479 -221.525 113.947 -447.05 549.778
17750 1 3.37144 -33.1547 -19.7037 132.642 205.146 -47.1542 255.835 -148.761 36.7508 -410.449 563.396
10643 2 4.77853 -33.2097 -19.008 -124.969 -59.3955 31.4632 -102.308 34.1577 -29.3379 -70.662 236.636
17982 2 0.352706 -32.7392 -17.5577 17.4278 -266.744 -24.8908 -29.7642 86.1057 -43.7606 -52.051 318.063
10197 2 2.41465 -32.0806 -18.9955 -11.4829 -186.945 -6.16155 -104.555 47.8889 -10.9968 -62.3876 267.931
20175 1 1.15221 -31.4943 -18.2045 -38.4532 434.466 -22.0768 124.147 -142.361 49.8018 -413.584 575.025
12765 2 3.97152 -30.8872 -15.684 -70.817 -88.8414 49.7819 -132.683 -33.4064 -45.1128 -75.1644 281.621
5400 2 0.223855 -30.7526 -19.2836 58.7436 -226.365 -8.2315 -36.3637 112.507 -7.21142 -62.6858 329.809
10379 2 1.70638 -30.5582 -17.0209 -10.7893 -161.683 25.9218 -84.9671 17.6001 -13.7822 -67.079 229.812
12963 1 2.75471 -29.9029 -16.0111 46.5426 247.648 -70.486 252.325 58.0496 35.1258 -388.064 531.496
18318 2 3.36728 -28.6546 -16.7845 -19.4995 -127.314 60.7907 -125.035 -42.6281 -11.7277 -76.6607 281.943
17878 2 7.11967 -34.5744 -20.5586 -177.293 -15.6076 56.4586 -60.5599 -23.5626 -9.29778 -76.0198 236.464
12771 1 5.40494 -31.6965 -15.3004 275.393 56.0859 -134.453 224.334 113.206 69.2751 -376.608 574.465
15859 2 5.28285 -29.762 -18.3094 -77.8104 -109.315 7.73532 -115.651 -16.2475 -24.6398 -80.6399 231.828
7769 2 6.88363 -34.2095 -17.9581 -207.392 16.3172 58.9815 -49.6581 -39.0923 -67.6663 -79.9633 295.176
15647 2 8.63563 -33.9847 -16.1488 -136.371 15.1185 1.78211 -24.5705 -47.0248 -74.2756 -83.5303 214.715
18064 1 9.76484 -33.101 -15.3692 237.256 -20.7497 -37.7425 34.224 121.731 102.672 -373.577 388.373
15170 1 6.1397 -32.872 -18.2574 321.082 35.1401 -76.5134 170.507 35.576 117.824 -377.053 508.742
15534 2 9.18255 -32.8742 -20.325 -114.138 -38.2596 43.5314 -52.9446 -27.7051 25.1416 -81.0366 176.811
22656 2 5.94489 -32.2892 -16.7142 -169.693 -14.1734 34.2936 -105.567 -42.8568 -62.0169 -80.4537 290.783
18302 1 10.1492 -31.9257 -19.565 114.921 110.393 -31.5603 57.5356 50.4887 -25.1439 -371.789 200.721