ITEM: TIMESTEP
1780000
ITEM: NUMBER OF ATOMS
29952
ITEM: BOX BOUNDS pp pp pp
-2.5151511364899502e+01 3.5136805706892048e+01
-1.1823088610935886e+02 1.2821618045135887e+02
-2.0980622470386777e+01 3.4848475616542608e+01
ITEM: ATOMS id type x y z v_StrAtomXX v_StrAtomYY v_StrAtomZZ v_StrAtomXY v_StrAtomXZ v_StrAtomYZ c_PEAtom v_VMS
5189 2 -22.8321 -42.8364 -15.1058 -454.037 354.686 -221.501 -109.024 33.3129 -142.926 -20.1341 787.604
516 2 -23.5293 -41.8124 -17.5541 -477.048 354.026 -336.585 -140.179 -0.502168 -86.5033 -40.7421 821.631
22681 1 -23.041 -41.6208 -15.9479 908.726 -506.76 475.643 288.204 -67.1731 260.574 -468.76 1429.88
25007 2 -24.1415 -40.4249 -15.4767 -490.169 178.037 -152.901 -127.909 20.259 -121.447 -41.2504 655.321
10469 2 -21.779 -40.7818 -16.6924 -348.548 163.306 -269.989 -175.421 82.9256 -78.7033 -38.2877 599.571
25201 1 -22.6733 -40.5025 -18.0442 771.094 -400.582 623.6 400.304 -55.8473 171.251 -433.615 1341.58
3102 2 -22.6486 -40.0985 -19.5938 -354.267 236.569 -311.519 -205.061 11.2994 -85.4273 -55.2135 688.538
5304 2 -23.6282 -39.2805 -17.5379 -417.612 170.471 -235.85 -182.091 36.1441 -95.8264 -59.1525 634.766
5488 1 -23.7398 -39.1248 -20.3286 772.176 -483.446 469.074 350.195 -11.7622 219.292 -401.867 1341.82
111 1 -24.8783 -39.4311 -16.4983 966.624 -386.612 332.27 292.202 13.1134 203.761 -423.46 1325.31
2993 2 -23.9614 -37.6257 -19.7439 -378.31 230.051 -203.704 -127.618 -0.397563 -98.9029 -72.1581 610.387
7681 1 -24.711 -36.1685 -19.9271 789.024 -580.867 276.771 203.095 62.8982 97.5511 -381.386 1265.48
5084 2 -24.7329 -35.8407 -18.3096 -415.549 298.547 -122.156 -132.395 -26.9098 6.405 -70.9045 664.367
25257 2 9.00398 -39.8679 -19.7708 -408.959 422.01 -361.806 153.09 -54.4703 -17.1748 -16.9937 856.532
17930 1 9.45227 -38.4115 -19.7306 841.806 -570.388 600.932 -230.228 99.0284 62.0353 -464.756 1382.8
10206 2 9.16035 -37.7642 -18.211 -399.341 212.611 -308.689 122.467 -105.152 -80.2714 -42.0585 651.709
18038 1 10.2174 -37.179 -17.2458 940.135 -354.211 517.874 -152.273 232.462 124.82 -435.55 1259.17
15177 2 7.09918 -34.3785 -20.26 -240.019 105.277 -229.02 59.4882 -109.162 42.8251 -56.2246 409.17
23037 2 9.56638 -34.1689 -19.2897 -321.589 100.677 -136.365 -62.3092 -80.7896 -3.26115 -72.0982 407.017
20200 1 10.6616 -34.341 -17.9141 617.613 -215.363 217.458 69.7495 135.961 -0.355491 -400.102 768.573
22278 2 10.2906 -36.4639 -15.8554 -462.733 143.331 -154.788 94.0751 -78.1978 -15.1457 -48.1758 566.65
17688 2 11.1167 -38.0484 -19.7879 -450.625 251.347 -314.226 5.74717 -85.9816 -10.6704 -43.3242 661.997
20469 2 10.9946 -35.9293 -18.2749 -409.268 112.832 -208.326 11.5956 -85.3548 -34.7625 -63.089 483.672
19790 1 11.3079 -35.3917 -15.1499 828.403 -152.309 65.9639 -180.177 -63.0207 -130.886 -431.483 977.791
17899 2 11.6535 -37.92 -17.3737 -474.266 238.791 -319.872 19.1102 -124.769 -52.085 -41.2532 691.471
10094 1 12.0617 -37.2789 -18.8086 752.489 -347.484 644.41 -8.98529 263.044 55.4249 -433.459 1148.81
15176 2 13.5419 -36.8425 -19.0054 -265.077 143.421 -340.669 16.4055 -147.344 -4.071 -48.2158 519.087
378 2 16.2581 -36.9625 -18.4855 -249.455 157.925 -348.185 4.29394 -116.215 4.51217 -32.7057 506.518
22754 1 14.9752 -36.1585 -18.7531 389.749 -162.628 601.017 -68.4951 238.405 -51.6342 -441.658 811.812
20420 2 15.2456 -35.0464 -19.9473 -128.411 17.6682 -221.856 19.5625 -134.541 33.9295 -56.5963 320.354
17771 2 14.6588 -35.0596 -17.5921 -202.878 9.41279 -151.248 76.2133 -97.9724 65.8147 -50.9225 309.82
22762 2 11.7039 -34.5562 -16.4838 -323.574 55.3823 -13.7122 57.3274 -13.0422 69.1168 -58.9919 383.274
22253 2 18.6266 -38.0467 -17.6552 -290.993 266.619 -267.497 -47.2451 -57.9701 -91.4877 -11.6093 583.326
25246 2 22.6146 -37.9044 -19.095 -364.643 201.579 -289.295 32.7737 33.4077 -55.1479 -40.4062 547.097
27664 1 22.0491 -37.6013 -20.5846 533.341 -313.569 632.612 17.4641 -137.304 -3.43783 -441.638 932.037
17570 1 17.8858 -36.8533 -18.3075 461.387 -280.717 578.94 58.5917 218.931 0.674794 -478.847 897.701
25056 2 18.4095 -36.4137 -19.7384 -192.282 85.47 -283.338 -34.9803 -120.009 56.5663 -40.9669 408.907
2899 2 18.1745 -35.4541 -17.4494 -202.648 1.88031 -200.513 -35.6773 -90.2926 39.4543 -36.2378 272.665
23050 2 20.0647 -34.7017 -20.6536 -126.253 29.0811 -199.617 -55.1178 -22.348 89.782 -57.6377 275.139
25359 1 18.1328 -33.8841 -17.5493 323.612 73.8189 296.239 21.9978 213.962 -212.586 -434.606 575.046
20107 2 22.9161 -36.1765 -20.3079 -203.431 112.954 -268.227 -11.3404 70.0951 54.0635 -57.4332 385.607
2433 2 27.3913 -38.1835 -20.5613 -303.211 273.458 -302.303 -1.69527 -34.0681 -21.0449 -59.1821 580.382
138 2 25.048 -37.3003 -19.245 -331.351 212.308 -281.719 23.652 6.39244 -11.8473 -56.3378 522.75
124 1 26.0885 -37.1843 -20.4983 491.32 -410.815 560.368 -26.7156 26.2617 -44.7379 -409.814 943.992
27553 1 23.6182 -36.6645 -18.9433 622.305 -314.086 510.757 -37.4557 -50.5472 -21.4619 -427.922 893.35
310 2 26.669 -35.7176 -20.3463 -214.059 196.178 -240.596 22.2368 -39.834 63.8515 -71.8216 445.375
27731 2 23.6559 -35.3127 -18.1073 -267.665 145.733 -208.045 13.3383 -0.341838 48.6782 -56.3366 396.798
299 2 28.6563 -34.9172 -19.0236 -245.927 232.172 -124.573 0.492073 -33.6445 95.4694 -76.9408 464.786
25358 1 27.1512 -34.477 -19.4778 416.606 -411.995 349.704 -40.1225 92.2311 -178.448 -379.577 872.64
27860 2 25.8677 -34.1561 -18.5318 -239.011 158.42 -150.631 26.2704 -13.1517 102.058 -74.195 405.554
25115 2 35.0926 -37.8376 -16.2322 -512.734 260.535 -103.079 -168.467 -4.3596 -25.945 -59.373 732.263
3000 2 34.2461 -40.0491 -17.4202 -465.534 269.433 -243.701 -57.3267 -21.7627 -123.6 -56.2503 695.311
5394 2 35.0167 -39.6565 -19.9101 -428.288 277.309 -254.394 -120.464 39.1517 -86.8311 -67.6663 690.043
9911 2 32.4404 -39.7403 -19.6233 -387.085 317.103 -254.328 10.9065 31.2772 -93.3786 -62.0634 670.424
2596 1 33.84 -39.3466 -18.828 850.174 -519.349 403.264 120.788 -59.8295 196.915 -400.953 1278.32
2782 2 33.8373 -37.8167 -18.2931 -473.862 282.508 -134.283 -121.237 -6.28818 -42.5871 -72.8073 692.977
24888 2 29.5119 -36.9536 -20.3426 -282.895 279.616 -236.081 -32.5629 -40.387 4.80989 -72.8685 548.106
232 1 34.585 -36.7173 -17.269 1015.29 -650.19 178.733 347.655 41.9745 -17.1379 -395.488 1564.97
2622 2 34.0341 -35.7422 -20.1746 -397.8 322.941 -101.489 -130.164 -18.7078 2.76021 -82.8404 667.537
9802 2 33.7075 -35.5716 -16.585 -509.591 320.11 -38.2158 -172.863 -35.3937 53.6196 -71.9978 788.37
112 1 29.7503 -35.422 -20.048 531.669 -560.993 304.632 43.0906 74.7031 -134.962 -375.518 1036.5
22773 2 31.2999 -35.0426 -20.0069 -300.609 303.551 -96.1748 -65.0292 -12.9539 72.1168 -83.9011 558.644
28143 1 33.3113 -34.0275 -16.2039 908.278 -446.298 -42.8817 266.28 23.276 -117.509 -372.922 1306.49
193 1 32.7855 -34.8278 -20.6504 673.078 -659.006 138.521 201.767 37.3442 -79.8939 -363.141 1222.12
7500 2 -8.55015 -32.3346 -18.3552 -416.962 95.9953 -31.0923 81.1209 79.8461 -75.3304 -75.9421 519.594
10198 2 -7.70192 -32.1763 -15.4792 -497.242 -10.1623 185.034 -35.1247 129.754 -73.9442 -63.0971 664.107
7513 1 -7.60667 -31.8674 -17.0571 1020.51 -58.1277 -276.409 6.77836 -184.204 147.656 -387.613 1270.39
15292 1 -8.57046 -31.8035 -19.869 730.769 -229.945 192.198 -107.618 -236.341 178.358 -358.284 996.678
3120 2 -8.07151 -30.3188 -16.9874 -501.16 63.6449 159.03 -39.7564 34.3611 -29.2372 -76.9603 626.758
7718 1 -8.19102 -28.7251 -16.6846 972.563 -264.633 -329.247 175.469 14.7839 27.7976 -385.233 1307.71
7987 2 -8.55223 -28.4871 -15.1548 -496.333 88.1798 201.976 -119.187 -14.0071 -5.18833 -66.6456 681.473
15286 2 -9.37262 -28.1575 -17.6371 -405.832 142.039 105.724 -81.656 4.14312 27.5849 -75.4847 551.292
20085 2 -9.65674 -30.8402 -20.6568 -266.825 108.217 -105.075 22.4103 142.769 -109.259 -87.9832 452.355
5466 2 -7.12231 -30.886 -19.8691 -445.736 92.3009 -56.095 -12.907 133.077 -66.9999 -97.7396 546.587
12695 2 -5.23037 -31.8767 -20.3251 -321.963 94.7641 -168.488 -107.664 85.7856 -40.2303 -78.9957 441.55
7800 2 -6.1172 -31.8544 -17.6928 -472.456 36.8637 60.9998 -62.5962 143.682 -93.8668 -75.2944 610.248
7766 1 -5.63322 -31.0258 -18.9414 780.977 -111.891 130.601 70.1739 -277.321 112.679 -367.299 960.774
7858 2 -5.25646 -29.6143 -18.6497 -342.728 106.324 -67.3911 44.5393 152.092 -32.4765 -80.1561 482.006
5169 2 -6.80608 -28.2027 -17.2101 -411.993 152.057 77.1319 -18.683 55.0236 -7.92471 -77.9639 540.206
12674 1 -5.65969 -28.0702 -18.3738 638.313 -290.447 99.0583 -130.66 -256.791 -13.8048 -372.138 949.824
13131 1 4.49943 -29.864 -18.1936 414.082 -31.8768 137.47 32.2633 -26.2597 87.3389 -406.367 424.396
20181 2 3.33365 -29.8793 -19.2172 -134.503 -30.812 -111.797 12.2055 95.9494 -57.0272 -50.5099 216.183
19699 2 0.762769 -29.1523 -19.0428 67.7331 -20.9812 -187.705 27.3612 54.8785 -0.971448 -33.7936 248.478
12880 1 2.08988 -28.9535 -19.8113 103.214 97.2721 277.229 -8.20409 -165.197 34.2576 -447.328 341.97
20466 2 4.13586 -28.7088 -17.1173 -176.285 29.0198 -94.7752 -59.9065 5.68262 -36.1 -67.9844 216.408
12999 1 4.41022 -28.1581 -15.6151 334.206 -72.0623 189.637 166.627 96.1957 34.1878 -385.822 491.712
22974 2 4.93498 -31.1602 -17.1976 -260.567 40.6838 -167.152 37.2026 -32.9935 0.623404 -67.5461 280.635
20533 1 8.31623 -33.4318 -19.9311 609.747 -171.724 270.35 103.932 222.698 -66.1575 -392.831 809.307
20359 2 9.33456 -33.8246 -16.9701 -283.248 116.025 -117.736 -90.6481 -88.0152 23.8344 -63.9148 412.704
19896 2 8.06782 -32.4012 -18.764 -277.832 76.3036 -70.5057 -85.9644 -159.197 53.712 -72.1466 449.255
12567 1 8.46808 -32.478 -17.2009 495.506 -177.837 168.48 177.946 269.434 -176.137 -394.68 863.705
12958 2 7.08129 -32.4432 -16.4522 -264.177 86.4687 -161.127 -22.6458 -131.845 64.915 -69.486 404.682
12867 1 5.69976 -31.8017 -16.0142 592.157 -131.676 391.03 -104.808 148.439 -66.3126 -392.497 728.733
22956 2 9.22197 -31.1028 -16.6957 -191.76 81.4079 -36.9704 -54.5707 -65.2642 104 -72.3977 332.35
17780 2 10.3919 -30.5858 -19.6038 -183.396 145.08 -93.3065 -41.7351 -77.8341 32.6345 -73.4554 336.177
15193 1 9.73817 -29.5115 -20.6074 391.978 -284.535 162.268 90.3355 132.764 11.2181 -382.89 657.854
27913 1 9.19098 -29.5641 -16.1446 300.675 -70.597 36.5386 42.8902 82.187 -62.8376 -378.446 383.631
17946 2 5.83715 -29.2199 -18.8585 -229.3 40.56 8.22699 -48.8761 -51.4452 -33.2367 -72.3757 289.076
22855 2 8.37661 -28.9563 -19.9845 -225.542 95.4169 -4.87572 -57.8667 -90.4498 7.3966 -77.5989 340.054
20275 2 7.77943 -28.9034 -16.6317 -212.555 64.2728 -21.2292 -14.7599 -65.2859 -5.81931 -83.6783 271.693
13154 1 6.81263 -28.692 -20.1179 422.517 -80.8483 -54.7639 143.373 133.845 22.4773 -385.565 598.209
13056 2 10.405 -28.7097 -16.7035 -106.558 -2.15393 2.90355 -28.3094 -54.4062 -12.6005 -75.5568 152.363
20358 2 10.8844 -28.3386 34.8073 -128.627 57.9548 -71.2992 -20.7474 -55.923 -0.364425 -76.0168 195.133
10086 2 16.5461 -33.4281 -17.6651 -165.139 -33.4859 -115.471 44.4022 -95.3201 105.531 -56.6683 282.566
22851 1 14.9498 -33.5336 -17.2669 357.69 53.0837 57.9104 -157.362 183.71 -204.906 -421.121 626.764
23047 2 14.7323 -32.898 -15.7438 -225.728 -58.871 82.3481 84.5341 -104.149 100.932 -57.8371 394.827
12682 2 14.9125 -32.5142 -20.6717 -88.5987 -1.48402 -146.731 36.3913 -114.318 54.6438 -66.8499 261.092
15093 2 14.3488 -32.4643 -18.2852 -140.24 -6.95458 -69.3434 68.5287 -48.1772 74.1453 -63.6839 225.58
25446 2 11.4008 -32.8735 -18.4198 -182.594 71.6302 -83.5048 -8.65125 -63.5031 40.3996 -69.0605 257.83
18027 1 11.4006 -31.8561 -19.6425 267.237 -191.126 292.661 37.3785 127.651 -62.4688 -390.545 535.891
17870 1 14.4019 -31.452 -19.5878 177.17 -28.8393 261.096 -82.0184 113.219 -110.206 -400.41 402.3
20340 2 12.8494 -31.1109 -19.8929 -65.4194 64.8928 -172.424 2.40704 -58.7571 26.7573 -68.4383 234.303
28013 2 15.4349 -30.2474 -19.2216 -106.963 -13.9441 -78.0011 28.0037 -37.6728 63.1988 -67.883 159.342
17975 2 12.4497 -28.4596 -15.4295 -26.6713 -80.8788 11.4405 -42.5043 -2.67418 -91.0132 -71.1296 191.699
288 2 16.6209 -28.1002 -18.031 -99.4163 -28.0219 -40.6468 -14.801 -34.2085 43.7397 -71.9994 119.426
22981 1 16.8275 -29.6033 -18.6413 266.448 47.0513 59.0264 -43.1989 81.9639 -163.72 -395.491 389.637
15557 2 11.0023 -32.7391 -20.9566 -197.526 66.7554 -163.404 -28.7876 -64.7334 21.0531 -75.0895 279.961
23145 2 18.9865 -33.3191 -18.7495 -104.869 -26.9888 -166.169 -23.6653 -101.404 121.205 -57.1309 301.989
15 1 19.736 -33.2393 -20.1506 135.501 11.2593 317.835 42.1895 86.0448 -218.056 -412.666 491.458
17562 2 18.4999 -32.8825 -16.2864 -170.448 -40.9765 -101.078 -19.9483 -128.096 94.91 -50.8187 300.062
27450 2 21.1485 -32.3818 -20.0434 -0.884255 -3.62575 -175.051 0.589108 -2.23775 104.779 -63.2607 250.631
2510 1 22.6219 -31.7188 -20.0711 58.7589 -9.12167 284.707 15.6647 -50.6023 -176.085 -395.917 415.251
20257 1 18.2687 -31.2604 -16.2431 321.229 141.517 88.7135 -48.1585 261.071 -193.762 -408.334 607.155
27756 2 17.3276 -30.8596 -15.0365 -183.02 -109.05 22.1597 62.1683 -176.196 22.3155 -67.5257 372.312
27653 2 19.6431 -30.5029 -15.8803 -62.5217 -99.8593 -120.97 -17.7547 -140.347 65.5331 -63.3786 274.862
4920 2 17.5835 -30.4768 -17.4966 -155.811 -54.498 -48.4807 40.3467 -81.4109 113.549 -68.4484 272.685
27839 2 17.5727 -29.484 -20.1063 -114.018 -29.1164 -41.5264 18.0451 -67.7089 74.2014 -69.0833 193.795
25346 1 19.7395 -29.0942 -15.2077 146.41 231.058 202.657 -12.3338 268.732 -70.8338 -396.834 487.573
27957 2 19.4486 -28.0866 -16.5527 -98.7726 -79.661 -80.1738 6.81531 -132.755 34.7694 -74.817 238.734
24955 2 22.8274 -30.3075 -19.2706 -22.2075 -12.0566 -147.381 -63.0372 -19.1489 68.0713 -73.5679 209.677
27952 1 24.2913 -33.8481 -18.2298 429.128 -270.865 342.666 -22.5924 -25.7213 -178.78 -398.866 732.356
2875 2 27.3045 -33.1445 -20.271 -159.984 170.305 -123.44 10.863 -43.5844 68.283 -83.8206 344.088
27588 2 23.6031 -32.8346 -19.3105 -125.176 69.1158 -176.266 -22.7416 30.6693 81.347 -71.0136 272.967
27573 2 24.0087 -32.8989 -16.9581 -175.221 28.9641 -87.3391 -1.22569 11.2614 68.0871 -66.683 213.923
17950 2 28.8859 -32.9063 -15.5372 -233.187 27.6345 -1.95573 -42.2296 -62.1769 29.3398 -86.173 284.106
22775 2 26.2016 -32.2852 -15.9939 -230.817 -70.7152 33.2652 -7.72364 -2.29402 47.2968 -82.6937 244.944
133 1 27.6177 -31.8712 -15.3566 422.694 251.75 -93.4575 44.2377 128.459 -46.0519 -354.495 518.787
27652 1 24.6802 -31.6113 -16.2291 315.289 228.715 0.995366 110.8 -44.6588 -51.5194 -382.846 360.336
22747 2 26.4931 -30.8171 -19.7722 -110.215 37.511 -62.8317 -9.90878 -30.1843 9.11403 -89.1286 142.638
27474 2 27.9431 -30.583 -16.2411 -163.99 -113.213 72.6121 -0.00342566 -65.7337 -56.8185 -92.5661 263.045
20480 2 24.3642 -30.3739 -17.1349 -110.973 -85.2071 -57.2202 -109.454 -7.71322 -2.60846 -78.455 195.723
27748 1 28.549 -29.6992 -17.3845 279.77 -66.2349 -68.6929 -95.9696 95.3984 121.201 -348.578 468.591
27676 1 23.7522 -29.4051 -18.3297 111.951 9.23805 286.567 227.516 108.44 -27.1067 -378.825 501.746
25455 1 26.4976 -29.2028 -19.4372 153.936 -95.2298 163.216 61.5538 81.3044 87.7986 -357.607 344.682
317 2 27.4622 -28.9128 -18.168 -81.1959 67.9961 -48.3988 -2.64913 -30.1079 -52.971 -88.3391 172.044
2885 2 24.9921 -28.9178 -19.2246 -76.6048 34.4221 -121.451 -71.9669 -61.2539 -26.4002 -83.1449 219.55
1038 2 26.921 -28.4075 -20.7513 -121.967 95.0728 -71.0223 -18.2815 -37.6738 -38.6894 -88.5084 219.991
5364 2 35.0662 -28.7797 -20.2973 -224.126 153.698 -41.0104 108.637 -108.769 57.6741 -101.258 433.56
2601 2 31.6745 -33.8699 -16.1259 -363.309 184.471 0.0559875 -96.7275 -17.8626 38.2194 -83.4568 516.199
28031 2 33.0979 -33.3772 -20.0086 -371.561 310.489 -32.0144 -72.508 -55.4284 24.5321 -89.0373 612.936
24924 2 33.6261 -33.0044 -17.47 -419.762 212.193 47.9184 -77.2057 -30.8129 11.761 -85.7595 586.246
12879 1 30.405 -32.881 -16.2024 521.881 -154.203 -74.6759 123.645 73.6063 -55.5937 -355.218 693.569
5202 2 30.1571 -32.6519 -17.766 -252.533 99.064 53.113 -36.667 -43.551 35.6185 -92.5817 350.864
27842 1 33.3084 -32.2682 -18.8818 710.659 -517.545 -36.5115 36.8586 139.808 35.5565 -352.334 1102.53
22883 2 33.9077 -33.3352 -14.8478 -478.109 173.185 -7.02554 -84.8637 22.8529 50.0938 -80.5844 608.268
25172 2 30.2676 -31.5684 -20.5891 -231.607 152.441 1.48282 25.3705 -68.3119 41.9218 -97.4726 365.389
27579 1 30.4217 -31.661 -19.0321 479.254 -269.955 -70.0639 -5.23123 124.449 -34.8946 -338.547 708.314
28042 2 30.9651 -31.5177 -15.5159 -249.048 31.0188 45.2132 -7.17759 0.53409 3.12542 -95.6407 287.748
5313 2 31.9739 -31.4084 -18.6594 -301.957 189.662 55.1288 14.9257 -67.1989 -17.7822 -98.2106 456.962
7892 2 29.3082 -30.5481 -18.6097 -168.936 60.036 23.4533 30.1485 -58.1219 -12.171 -98.4785 242.272
27744 2 34.3043 -31.1671 -19.5222 -307.947 257.915 -26.9194 49.2245 -91.4182 -18.2533 -90.7219 522.967
399 1 34.0605 -30.0575 -20.6586 540.123 -425.679 12.7217 -199.235 206.201 -76.8725 -337.135 982.816
5577 2 32.5885 -29.3894 -20.5814 -242 188.971 0.318224 113.73 -83.3861 45.7654 -104.339 453.838
503 2 29.7801 -28.8679 -16.7975 -210.21 146.763 43.8016 106.254 -41.1475 -45.5657 -92.5326 382.693
25468 1 31.3625 -28.3664 -20.2359 351.389 -388.197 -6.90491 -188.892 130.375 -92.2578 -327.722 770.675
101 2 34.083 -28.6268 -14.9187 -393.316 104.356 125.124 66.3883 19.7175 -82.3747 -90.9028 541.47
27478 2 31.3376 -28.0475 -18.6836 -218.082 193.737 7.69002 107.118 -70.4892 26.4349 -102.931 423.102
25134 2 30.134 -29.0153 -21.0098 -138.319 143.199 -14.9802 43.2769 -51.9732 12.3839 -98.388 271.892
5187 1 -24.9459 -27.4395 -19.6268 372.998 -168.332 75.9101 -219.79 223.277 -117.434 -324.395 745.875
2768 2 -23.6712 -26.5931 -19.9249 -92.2544 35.0184 -72.2649 140.89 -111.27 68.8772 -101.969 353.524
5592 2 -21.1376 -25.6742 -19.8764 -31.4119 -54.9936 -38.943 128.133 -18.602 94.9044 -91.5423 278.833
195 1 -22.6547 -25.4379 -20.3096 69.25 -32.6878 59.4197 -308.302 195.455 -210.144 -333.272 736.02
28057 1 -19.5824 -25.2983 -19.5695 74.4851 249.037 -19.8884 -209.913 -82.1568 -154.688 -367.506 529.219
10090 2 -23.2272 -24.1025 -19.5041 -22.0718 69.6656 -40.2323 113.198 -121.238 149.37 -102.875 399.853
28048 1 -22.7677 -22.6049 -19.1515 -8.58401 5.70665 -54.18 -161.93 186.093 -300.936 -327.766 676.149
7593 2 -22.0376 -22.4225 -17.7699 33.9392 -73.4912 41.7957 74.4794 20.0929 154.679 -97.5428 319.494
25620 2 -21.5367 -22.2329 -20.1294 -11.2212 -22.2165 54.2195 82.071 -76.9245 122.124 -101.335 296.353
5398 2 -19.2538 -24.8655 -15.8004 -68.1693 -139.316 -25.6853 57.6467 179.048 80.317 -72.6847 367.947
13173 2 -19.0375 -26.3164 -18.3945 -97.638 -83.9422 -9.20207 66.263 122.576 50.1185 -69.1402 269.406
22856 2 -25.0359 -22.5388 -15.6824 -104.289 -60.8608 87.9865 132.41 27.8606 77.2022 -100.542 321.422
480 2 -19.2287 -24.1887 -18.3841 -17.7381 -162.188 79.172 84.0228 101.03 88.9027 -82.0257 346.075
3095 2 -14.5145 -26.27 -17.385 2.03098 -38.7352 28.144 -13.7617 47.0577 23.0075 -47.2047 110.489
13079 2 -15.503 -25.4859 -14.9347 -43.5209 -126.233 -43.0436 -0.701719 180.938 -8.56173 -62.7516 324.527
7969 1 -15.5351 -25.442 -16.6229 32.4639 270.473 -55.1762 -76.0298 -205.912 -20.9155 -418.397 480.668
3066 2 -17.0688 -25.4382 -17.0406 -80.8011 -161.989 20.8984 62.0528 137.613 42.5428 -64.475 314.617
5474 1 -18.6431 -25.1844 -17.2107 156.287 335.79 -63.9697 -136.815 -327.513 -145.627 -389.918 749.562
5563 2 -15.2034 -23.8416 -16.9721 25.4452 -249.402 100.279 94.6844 42.9799 22.168 -70.1891 368.267
18235 2 -14.6159 -22.7726 -19.4441 -8.38952 -238.511 134.226 25.1913 41.0588 131.196 -83.5961 405.848
5282 1 -14.5661 -22.658 -17.7817 -51.9182 464.079 -291.007 -54.4108 -93.2692 -109.969 -375.998 719.753
8064 2 -17.851 -22.8044 -14.841 -6.82628 -157.872 1.99056 25.8704 149.989 74.5851 -82.7073 332.281
396 2 -13.054 -22.3791 -17.3904 11.4146 -222.357 150.249 -51.8497 65.2006 42.3761 -84.0409 364.123
15097 1 -9.62137 -26.5999 -18.0046 720.208 -196.233 -190.447 227.828 -49.8652 -134.739 -374.861 1025.79
10499 2 -10.4953 -26.3658 -19.3365 -238.882 68.2819 68.8873 -126.09 125.743 92.8278 -79.813 464.237
10074 2 -8.08709 -26.1792 -18.5374 -336.049 109.667 23.7573 -79.0561 55.0072 84.423 -89.6151 465.79
20189 2 -9.99274 -25.8288 -16.6741 -354.078 42.9005 160.363 -117.897 -43.8193 45.9154 -75.9349 521.347
100 1 -10.2388 -26.5883 -20.9047 398.605 -227.744 -25.9011 276.99 -384.885 -146.236 -355.203 1022.43
5485 1 -10.6804 -25.1082 -15.4229 574.163 30.9302 -361.066 190.529 79.1409 2.79713 -382.955 888.496
12577 1 -7.31035 -24.755 -18.3849 476.428 -164.856 -27.0603 86.1607 -103.69 -193.675 -359.258 713.388
7966 2 -11.5782 -24.0706 -16.1538 -145.368 -113.043 169.528 -100.286 10.9571 -0.979617 -78.3713 347.218
12307 2 -8.63235 -23.8659 -18.6327 -243.034 70.5564 54.3239 -74.5709 64.1908 73.3583 -91.7328 372.425
3105 2 -10.6611 -22.4149 -18.2096 -103.738 -105.845 139.519 -63.6615 53.2757 52.3646 -92.3186 297.641
7708 1 -11.5866 -22.6312 -16.9408 156.597 334.657 -372.401 178.224 -89.0653 -51.7653 -360.885 729.976
12949 1 -9.43059 -22.6245 -19.2694 307.108 -23.2811 -160.496 63.1102 -164.065 -97.7942 -344.97 542.873
8070 2 -10.2149 -22.8761 -20.7527 -89.1068 3.88714 88.8265 -26.0265 133.185 94.2063 -94.8069 325.011
5301 2 -8.09421 -22.6556 -15.1424 -145.766 -131.538 205.798 2.23659 42.0367 31.869 -86.811 356.596
482 1 -7.10455 -26.3384 -20.5739 466.452 -264.508 -21.7185 -21.6216 -163.738 -86.2428 -345.734 721.059
5460 2 -8.65587 -26.2362 -21.0807 -219.226 133.823 33.9408 -72.8823 151.595 66.2064 -95.9747 444.28
10073 2 -6.35731 -27.5717 -19.7446 -316.738 164.493 -30.5127 41.7755 102.973 25.5238 -92.6861 463.43
10185 2 -4.44055 -27.1275 -17.9683 -181.555 25.903 -79.3667 127.198 177.883 19.3716 -69.6615 420.561
10085 2 -1.86914 -26.6646 -17.3718 -17.5122 -139.765 -111.549 105.579 175.839 -15.7774 -53.9193 373.146
12784 1 -3.29056 -26.0336 -17.838 75.5915 226.719 128.773 -291.43 -361.412 -36.3494 -406.538 817.463
13090 2 -1.26192 -25.6663 -15.1421 -76.0543 -151.325 -43.6485 40.1593 59.2228 -49.0413 -59.8008 178.131
10446 2 -6.60527 -24.9171 -19.8672 -177.501 101.138 1.66047 13.3885 38.3321 48.4192 -88.4036 267.948
5482 2 -3.11262 -25.3917 -19.295 -2.73373 -113.647 -91.4798 175.415 128.425 -28.673 -68.4992 393.182
5483 2 -3.88205 -24.9874 -16.7285 -45.7213 -105.499 17.9353 64.8671 149.776 78.2831 -65.0656 331.266
3080 2 -6.35267 -24.7358 -17.1231 -181.711 10.8678 47.7012 -3.60172 84.5056 118.271 -78.135 330.096
8055 1 -5.21455 -24.8463 -15.8713 215.172 109.974 -228.595 -28.0276 -244.054 -194.16 -402.401 674.871
10098 2 -5.44959 -23.3546 -15.3861 -63.8716 -112.916 119.978 23.3121 108.218 61.2927 -73.0413 305.38
8138 1 -6.61876 -22.3292 -15.6608 185.71 244.758 -338.084 -97.4017 -177.641 -66.7779 -370.457 667.296
15547 2 -1.9763 -23.1275 -14.8986 -50.2115 -87.3948 -7.1061 12.4235 4.38588 2.85636 -72.2171 73.4077
12688 1 -3.07926 -24.9603 -20.8643 5.23478 147.812 181.527 -369.145 -206.321 100.902 -391.453 770.276
20276 2 3.00953 -27.574 -15.1039 -34.5781 -32.4843 -124.679 -114.898 -54.1181 -27.0781 -64.2405 242.696
25355 2 2.60506 -27.3704 -19.6871 -64.879 -42.1643 -88.9658 -81.4219 60.3572 4.19783 -55.1998 180.315
15108 2 0.456515 -27.221 -15.7165 11.3217 -100.768 -147.673 -23.0384 21.0769 -61.8148 -50.7569 185.499
10274 1 -0.60464 -26.3692 -16.5028 -7.59737 313.669 205.678 -83.1399 -173.58 93.8014 -425.216 466.587
17750 1 3.09072 -25.895 -19.8046 80.3483 154.911 91.4529 225.539 -89.1795 11.3273 -403.541 426.265
10643 2 4.50932 -25.7728 -18.965 -77.8494 -37.4775 -30.8106 -113.384 27.4895 -39.416 -74.8709 217.806
17982 2 0.0908859 -25.2165 -17.3939 34.5312 -217.341 -61.052 10.1195 50.8794 -41.77 -62.7756 248.614
15279 1 -0.697778 -23.0071 -20.7375 -185.227 384.124 136.609 -53.3322 -170.17 64.9174 -389.021 593.759
10197 2 2.12945 -24.8444 -19.0411 18.8732 -156.236 -83.431 -87.7213 47.5785 -31.414 -68.3513 236.753
20175 1 0.920719 -24.0763 -18.2083 -74.6572 386.09 45.26 51.7947 -77.4858 76.2022 -395.527 463.57
12765 2 3.72 -23.4145 -15.6701 -38.2723 -82.1513 19.0342 -132.298 -34.0313 -41.1138 -80.4965 262.255
5400 2 0.0855765 -23.3051 -19.3534 52.8415 -200.82 -23.0077 -9.88166 74.3602 -46.202 -71.3009 272.291
10379 2 1.54673 -23.0337 -17.12 6.28317 -137.731 -8.72721 -53.8571 9.27926 -17.9014 -75.478 169.485
12963 1 2.52169 -22.459 -16.041 -8.51451 166.996 -34.8063 203.635 78.2612 15.1679 -375.988 423.764
15859 2 5.07106 -22.0937 -18.2709 -51.349 -47.8951 -5.64383 -90.9952 -27.2338 -61.3301 -86.0321 200.73
14987 2 5.79638 -27.3456 -15.8464 -202.794 53.5512 -34.6402 -61.7473 -49.1205 -43.3458 -84.4919 274.219
13035 1 7.17422 -27.3179 -16.6535 385.771 -98.3363 10.0715 83.4501 108.762 102.33 -361.315 530.494
17878 2 6.89607 -27.1449 -20.7898 -168.707 11.7633 29.5147 -76.2156 -39.0102 6.80476 -77.3234 241.286
7769 2 6.86254 -26.5835 -18.0022 -184.081 28.9747 15.7728 -63.4062 -49.9918 -47.0653 -84.685 262.599
15647 2 8.32247 -26.5263 -15.9395 -154.462 -1.1236 -11.6448 -41.6663 -51.6653 -61.5175 -87.3455 215.823
12771 1 5.117 -24.1559 -15.3925 210.793 65.7441 -75.8913 260.164 92.4534 83.4292 -367.447 557.874
18064 1 9.44483 -25.5118 -15.419 219.988 37.6213 -53.4778 43.2213 99.1628 108.618 -369.573 358.703
15170 1 5.85924 -25.3609 -18.2914 260.031 8.2726 11.2057 200.587 42.7171 113.153 -367.931 476.7
15534 2 9.03562 -25.2262 -20.593 -107.411 -10.8973 12.5047 -58.0559 -54.412 20.3118 -83.6557 179.867
22656 2 5.70676 -24.7267 -16.7561 -136.706 -19.5566 2.49751 -107.793 -38.3127 -71.2726 -85.6301 267.011
18302 1 10.1281 -24.3856 -19.8009 118.797 29.9664 74.8866 58.2285 113.042 0.540422 -365.229 233.295
15562 2 6.40947 -24.1283 -19.1693 -95.7551 -16.268 -3.15031 -95.2166 -25.3879 -53.3385 -85.2514 212.603
20263 2 9.36717 -24.0671 -16.1059 -100.482 10.4821 20.5768 -2.215 -57.0637 -49.3344 -82.5179 174.987
23038 2 9.55622 -23.5297 -18.5386 -48.9065 -29.118 -35.5945 -28.8745 -74.2665 -27.3768 -86.1965 146.975
15445 1 9.0465 -22.9229 -17.1449 131.456 -15.6219 27.0383 5.20538 105.148 43.0513 -365.14 236.616
23053 1 6.4849 -22.625 -18.7802 131.146 15.6093 25.5336 185.697 48.8154 108.093 -360.258 397.432
12983 2 7.57011 -22.4997 -17.5896 -75.6624 -3.81732 -16.2287 -43.3889 -41.1562 -35.4342 -86.8923 137.55
7661 2 10.9193 -23.3072 -20.6455 -38.6524 -16.1055 -47.763 -10.0402 -29.4334 -12.7266 -83.4889 64.6844
10745 2 10.7889 -26.395 -15.7594 -62.5554 -55.4643 -2.55445 -24.4011 -50.3014 -77.1007 -77.9848 174.458
17945 2 11.1031 -25.4498 -19.027 -55.4937 -35.5251 -67.3811 -19.2175 -62.5633 -21.9436 -82.3202 122.77
20473 1 11.5199 -27.6384 -16.4354 88.9785 99.4958 1.58784 64.1692 92.2334 178.194 -386.268 376.563
5386 2 12.4415 -27.1544 -17.6599 -26.9268 -67.4145 -28.3849 -15.6589 -43.273 -51.8493 -73.402 126.494
20381 2 12.9134 -26.8216 -20.1842 -60.9314 -30.7107 -60.8991 -41.9866 -23.9087 41.1333 -74.5992 113.981
12877 1 16.6751 -26.5857 -17.4927 136.884 0.771874 119.551 60.1084 43.9304 12.2297 -384.934 183.153
17777 2 16.6159 -26.5202 -15.9045 -109.134 -24.8416 -42.446 7.58101 -43.271 -42.3562 -76.7978 130.778
20487 1 12.5709 -26.0377 -18.8252 59.6754 99.0487 142.217 8.69716 36.0994 22.4157 -379.711 103.717
15297 2 15.8759 -25.395 -18.2418 -35.0339 -2.97322 -92.181 -19.2665 5.54182 -23.9102 -75.9916 95.114
13151 2 13.5185 -24.7902 -18.231 22.7618 -53.8832 -109.886 20.9873 9.94238 -29.3143 -78.1522 132.284
15169 1 14.9441 -24.0569 -18.0802 -8.03327 95.2079 152.982 -43.7154 -28.3153 89.8873 -375.592 228.777
19980 2 15.6529 -23.2785 -16.855 -28.3425 -66.5748 -19.2568 3.61023 -2.08779 -14.57 -81.0482 50.8002
15198 2 14.7976 -22.8942 -19.2013 34.0285 -86.1138 -66.4546 22.2075 -24.0351 -54.2428 -83.3383 156.519
25634 1 14.5959 -21.9903 -20.5312 -108.044 239.539 80.2232 -19.1849 104.486 92.0033 -364.147 387.389
20182 2 17.0343 -21.981 -14.8671 -12.5662 -105.556 27.185 -19.9264 -26.209 8.0391 -82.9197 131.794
20463 1 16.9531 -22.4282 -16.4269 67.0703 194.231 -60.3659 1.15088 52.6744 42.4305 -365.959 249.687
15453 2 13.0328 -21.7154 -20.8797 68.3012 -94.4379 -60.7952 9.8888 -37.0408 -45.8024 -83.4622 181.229
25348 1 19.7588 -26.6861 -17.2694 128.645 78.6471 78.4417 -6.3793 246.568 -24.7442 -384.071 432.268
15683 2 20.5534 -26.4734 -18.6211 -53.1229 -36.5308 -36.7918 -16.069 -106.595 7.74542 -75.1189 187.919
27836 2 22.6459 -26.4203 -19.8665 -14.5807 1.78571 -101.557 -61.0774 -43.7394 15.2289 -77.2191 163.959
10380 2 18.2942 -26.1047 -17.6526 -68.8954 5.41752 -43.4647 -19.2204 -86.9531 -10.1379 -75.9913 168.459
15447 1 21.1047 -26.2596 -20.1724 125.441 60.6018 61.8219 72.2784 72.3175 -33.2893 -381.884 197.01
23049 2 20.3637 -25.9107 -15.9472 -68.5444 -33.0361 -20.4895 41.3412 -77.2239 46.313 -74.9599 176.964
22987 2 21.2225 -23.5318 -17.1738 -10.6222 -48.819 11.9411 -15.0932 -60.9774 36.5006 -79.5015 136.62
408 2 18.3913 -23.2846 -16.6675 -36.8849 -45.0401 5.2461 2.32376 -26.6369 -31.1276 -82.8735 85.0687
25546 2 19.3414 -22.7198 -18.9212 -25.4985 -96.868 10.1745 -61.5359 -23.0909 25.9566 -85.0717 154.573
25263 1 19.766 -22.8667 -17.3615 -6.14613 137.101 -43.7706 50.2315 66.0553 -29.8685 -368.354 225.079
22670 1 22.8464 -23.6825 -17.2149 45.8889 105.581 -94.2072 -11.0993 122.231 -138.58 -377.554 366.548
25456 1 18.9005 -22.1034 -20.3702 2.622 244.991 -67.0874 172.959 45.2526 -58.1532 -359.989 431.892
3155 2 20.8357 -24.735 -20.8263 -52.1076 -42.1345 -18.6976 -58.4831 -34.1956 36.2706 -80.2596 136.375
405 2 23.3391 -27.8539 -17.8896 -44.8127 8.92464 -134.971 -110.962 -97.8933 27.0781 -74.2081 289.392
25153 1 23.5928 -26.4616 -18.5791 78.5425 -102.02 236.751 127.977 193.404 -63.332 -382.017 509.492
30 2 25.0767 -25.9795 -19.2088 -47.2098 90.7494 -118.628 -31.9814 -89.9204 26.8232 -80.1526 251.932
12696 2 23.1985 -25.1844 -17.6019 -51.838 -1.59377 -28.1519 -14.6322 -85.91 77.3519 -75.3387 206.469
5464 1 25.9575 -25.0698 -20.2929 62.2301 -170.209 176.373 60.2939 106.481 -87.0062 -362.082 401.52
2915 2 27.2341 -24.3429 -19.6467 -15.3588 58.4798 -54.8755 -12.4901 -5.6342 86.002 -90.4988 180.787
25539 1 28.6998 -23.7537 -19.7593 71.0853 -130.56 -6.24899 49.1107 -69 -199.137 -338.86 414.165
27862 2 23.5853 -23.2819 -15.8419 -39.3655 -98.5058 120.077 17.5429 -49.085 36.9458 -79.5726 224.934
25320 2 23.4379 -22.6276 -18.2756 11.7941 -51.3534 1.76857 6.60209 -73.9298 75.2867 -83.8883 192.32