ITEM: TIMESTEP
960000
ITEM: NUMBER OF ATOMS
29952
ITEM: BOX BOUNDS pp pp pp
-2.5151511364899502e+01 3.5136805706892048e+01
-9.1499855080286324e+01 1.0148514942228633e+02
-2.0980622470386777e+01 3.4848475616542608e+01
ITEM: ATOMS id type x y z v_StrAtomXX v_StrAtomYY v_StrAtomZZ v_StrAtomXY v_StrAtomXZ v_StrAtomYZ c_PEAtom v_VMS
5189 2 -22.6818 -48.6116 -15.6616 -414.36 339.135 -235.981 -114.933 43.9769 -150.997 -21.1684 760.918
516 2 -23.542 -47.5614 -18.1474 -447.878 325.063 -341.267 -140.112 -0.870873 -88.5738 -42.0022 780.277
22681 1 -22.9905 -47.4337 -16.5567 858.151 -493.184 544.253 277.463 -75.214 273.894 -465.325 1404.79
10469 2 -21.709 -46.702 -17.3081 -314.139 149.219 -297.49 -168.113 68.6004 -88.3265 -38.1664 574.084
25007 2 -24.0684 -46.3122 -15.9903 -457.896 139.855 -182.839 -99.0044 17.51 -131.559 -42.8833 592.28
25201 1 -22.7036 -46.2097 -18.4406 727.253 -336.65 613.854 355.84 -39.4792 207.956 -433.146 1240.32
3102 2 -22.7224 -45.7268 -20.0074 -329.223 198.163 -268.808 -186.543 -3.68164 -106.93 -55.2995 623.427
5304 2 -23.5382 -44.9998 -17.8289 -383.202 125.045 -235.869 -152.119 43.6384 -120.215 -58.6221 568.884
5488 1 -23.7835 -44.815 -20.7918 723.497 -425.107 419.841 313.048 13.3081 266.223 -402.309 1252.94
111 1 -24.8005 -45.2355 -16.8423 909.196 -303.864 363.911 271.886 -14.878 239.217 -422.801 1225.35
2993 2 -24.0763 -43.3837 -20.1621 -359.975 200.031 -185.636 -108.152 -7.99477 -140.501 -72.2034 583.844
25257 2 9.75829 -46.3317 -19.6157 -424.869 411.912 -337.419 84.3915 -56.6405 -7.20827 -12.2869 815.978
17930 1 10.2961 -44.9219 -19.335 844.616 -569.087 598.36 -92.4893 116.123 72.1848 -479.906 1338.96
10206 2 9.99511 -44.3094 -17.823 -419.816 246.705 -309.323 65.826 -84.9913 -76.9182 -34.7368 659.721
20170 2 9.85443 -43.7645 -20.408 -395.014 192.195 -222.25 30.6636 -46.4761 -18.2861 -38.2566 532.463
18038 1 11.062 -43.4709 -16.9799 933.41 -451.09 523.487 -83.9897 202.911 48.7987 -450.122 1291.96
17688 2 11.9243 -44.7835 -19.476 -446.706 268.922 -327.512 -18.2278 -104.895 -16.7459 -30.6612 689.84
17899 2 12.5338 -44.1976 -17.057 -466.723 272.533 -307.426 2.23514 -135.714 -42.0828 -33.5624 717.424
10094 1 12.7591 -43.7574 -18.6192 776.56 -416.255 649.992 -24.9739 293.956 41.5525 -456.02 1246.65
15176 2 14.0754 -43.1138 -18.9606 -310.595 188.578 -325.672 46.5469 -157.439 6.82754 -41.2215 581.316
25246 2 22.694 -44.2391 -19.3717 -371.113 241.764 -358.258 -1.20706 50.431 -48.1715 -46.6989 618.466
22253 2 18.9306 -43.9893 -17.8787 -269.548 283.259 -282.928 -25.9868 -66.787 -97.8467 -19.761 597.746
27664 1 22.1003 -43.5645 -20.6593 536.524 -331.768 616.218 44.0196 -145.901 2.97038 -429.9 948.252
138 2 25.1792 -43.2474 -19.2594 -299.487 213.131 -310.597 -9.0763 -34.2878 -30.112 -61.9229 524.49
124 1 26.1152 -42.9936 -20.4894 430.808 -363.818 567.784 2.27533 138.676 -20.3628 -404.648 904.428
27553 1 23.6173 -42.9886 -18.9161 661.76 -381.815 620.468 27.904 -20.8747 48.0648 -416.434 1028.71
2433 2 27.4485 -43.93 -20.7543 -251.851 243.678 -301.92 -15.6074 -81.9246 -26.7468 -61.0558 543.947
5394 2 35.0847 -45.485 -20.3467 -402.252 257.926 -224.379 -107.139 21.9659 -108.06 -66.3205 648.815
25115 2 34.8996 -43.7291 -16.4989 -484.985 188.931 -102.123 -140.819 -3.47025 -51.0101 -57.8677 640.36
3000 2 34.3229 -45.7851 -17.8118 -439.442 232.803 -228.382 -58.718 -9.69843 -145.015 -57.7283 654.438
9911 2 32.4422 -45.7321 -20.0628 -367.392 305.222 -273.273 10.8918 22.0169 -108.533 -60.387 659.629
2596 1 33.847 -45.2268 -19.2558 787.051 -466.782 434.445 98.8406 -55.5119 244.356 -402.344 1213.26
2782 2 33.7813 -43.6683 -18.7496 -413.7 235.933 -152.915 -113.412 -6.61089 -79.4652 -71.8466 615.044
7681 1 -24.8722 -41.9443 -20.1578 754.311 -548.47 292.951 173.462 82.8208 153.964 -384.038 1221.06
5084 2 -24.8751 -41.7676 -18.5007 -403.992 278.885 -128.589 -118.474 -31.0528 -30.9413 -67.6977 634.015
7500 2 -8.5587 -38.2067 -18.3042 -435.359 95.9671 -25.6632 56.8228 92.9221 -77.7277 -78.8108 534.968
10198 2 -7.93232 -38.0808 -15.4484 -497.718 0.518309 154.865 -40.4122 159.473 -37.6626 -67.7622 659.1
7513 1 -7.73753 -37.7991 -16.9995 1034.82 -85.2369 -266.783 45.5059 -227.812 115.022 -380.617 1300.93
15292 1 -8.5598 -37.6906 -19.8026 805.289 -240.528 161.234 -55.8374 -243.816 220.636 -358.171 1081.07
5465 2 -7.69284 -38.4718 -21.0457 -429.029 222.563 -139.276 -12.4035 102.933 -44.9536 -84.6378 598.363
12695 2 -5.23819 -37.7746 -20.1785 -333.589 80.7755 -128.214 -111.985 65.2215 -63.1589 -77.7376 437.181
7800 2 -6.21718 -37.8531 -17.6091 -495.596 23.7164 84.4366 -64.3429 146.667 -90.9462 -77.3505 637.709
22278 2 10.8063 -42.5851 -15.7038 -455.486 218.401 -181.762 79.7914 -53.7445 9.45574 -45.7501 610.429
15177 2 6.986 -40.3239 -19.6865 -322.702 103.701 -196.151 75.9586 -92.2601 45.1819 -56.4526 439.137
23037 2 9.42441 -39.9102 -18.6445 -307.045 89.8504 -109.021 10.9742 -56.9584 48.4504 -67.3686 367.806
20200 1 10.3497 -39.4313 -17.3475 516.749 -161.333 118.144 29.7093 47.5942 -67.0216 -400.805 609.355
20533 1 8.13481 -39.256 -19.4008 657.636 -174.26 208.52 -33.5216 160.113 -119.383 -398.649 801.981
20359 2 9.15517 -38.8891 -16.4016 -247.888 86.8384 -87.9035 -40.9574 -22.8626 55.4242 -68.1398 316.073
19896 2 7.67993 -38.0966 -18.3515 -286.48 75.9371 -63.2207 -38.0318 -102.807 81.1514 -70.9344 395.072
12567 1 8.06282 -37.7188 -16.8059 463.083 -135.44 151.614 109.858 196.723 -216.635 -385.677 749.612
12958 2 6.73937 -37.4575 -15.9859 -246.783 60.4088 -126.625 -19.1877 -101.622 80.7823 -75.2833 351.506
22965 2 8.35049 -38.439 -20.8001 -316.602 96.6419 -82.5529 -28.3303 -49.8389 12.3776 -69.2472 373.027
20469 2 11.6223 -42.553 -18.2458 -362.615 174.074 -224.638 19.8411 -99.2802 -7.18644 -49.8782 513.739
378 2 16.5902 -42.6859 -18.1846 -260.857 151.106 -318.144 0.949941 -119.662 28.0658 -35.8591 491.853
22754 1 15.2322 -42.0737 -18.6129 489.448 -260.168 557.117 -100.024 275.796 -94.7191 -442.373 949.921
19790 1 11.5044 -41.2346 -15.0889 817.202 -313.277 178.543 -157.602 -7.08443 -108.776 -425.596 1036.36
20420 2 15.348 -41.0911 -19.9302 -199.82 41.5911 -202.824 0.712918 -111.345 65.6191 -55.733 330.341
17771 2 14.6548 -41.0586 -17.4915 -233.253 76.3315 -160.204 68.1989 -143.178 75.2255 -51.6947 413.513
22762 2 11.404 -40.2134 -16.3493 -298.806 106.936 -56.5168 26.0647 -9.30497 46.7938 -61.2391 365.911
10086 2 16.7582 -39.54 -17.3642 -176.193 -12.2782 -146.985 12.354 -129.657 122.393 -60.0572 344.622
25446 2 11.1343 -38.2583 -18.0798 -184.562 9.33183 -48.0616 -17.7263 -40.6035 63.991 -70.4007 218.937
22851 1 15.1634 -39.5352 -17.0507 390.962 22.944 115.472 -102.452 273.64 -198.763 -413.382 696.127
23047 2 14.7066 -39.0413 -15.6258 -207.238 -51.3078 32.8172 73.7553 -150.527 78.007 -63.6021 383.482
15093 2 14.5585 -38.4967 -18.1143 -140.268 -26.9848 -57.9493 28.1925 -80.3184 81.8706 -66.7407 228.32
12682 2 15.0059 -38.5492 -20.5603 -138.147 -6.02396 -85.9069 9.88834 -107.963 59.4312 -66.6961 243.19
17870 1 14.6412 -37.5444 -19.3862 225.174 -0.187717 139.186 -43.9917 128.506 -107.354 -397.838 358.783
18027 1 11.5334 -37.5811 -19.4939 265.541 -64.2479 161.102 17.1692 142.305 -76.908 -392.754 405.717
15557 2 11.275 -38.7306 -20.5752 -167.348 18.9372 -113.482 -6.62795 -71.6633 47.237 -69.5156 223.164
20340 2 13.0797 -37.1244 -19.6556 -81.072 14.9974 -88.6526 -0.447829 -64.5415 27.0743 -68.7967 157.199
20076 2 13.1146 -40.3732 -21.0759 -148.528 26.9465 -148.272 9.23098 -87.561 50.7191 -59.9731 248.435
19983 1 14.7269 -40.1402 -21.0075 304.461 -12.6863 238.701 -1.00235 241.481 -112.205 -413.11 544.76
17570 1 18.1956 -42.7524 -18.3665 424.864 -312.203 580.664 51.7612 225.832 -4.86822 -466.455 918.415
25056 2 18.4916 -42.2796 -19.8628 -181.665 93.6826 -274.869 -28.0451 -108.683 57.9566 -47.4995 397.542
2899 2 18.673 -41.2964 -17.5761 -168.454 38.8824 -214.214 -59.906 -116.008 48.3875 -43.8126 335.759
25359 1 18.3941 -39.7174 -17.5309 267.821 7.39617 351.478 77.7142 275.452 -233.927 -421.512 711.697
15 1 19.8984 -39.2356 -20.2891 183.537 -59.846 291.247 49.3536 60.2893 -201.256 -403.761 486.596
23145 2 19.0066 -39.3068 -18.9448 -95.315 2.53356 -195.945 -33.8901 -96.4364 121.118 -62.7265 323.885
27450 2 21.2899 -38.4829 -20.0388 -56.6332 61.929 -171.44 15.0045 4.2271 95.2664 -68.4999 262.308
17562 2 18.7972 -38.5699 -16.4799 -124.479 3.38225 -137.074 -32.4907 -157.273 104.433 -59.6638 358.061
23050 2 20.2012 -40.6669 -20.9739 -152.854 32.1893 -170.148 -42.5401 9.69915 75.3787 -64.0872 245.962
2510 1 22.863 -38.1976 -19.9401 195.647 -196.056 322.829 -25.1238 4.95346 -142.495 -385.151 531.325
20107 2 22.9628 -42.2389 -20.2198 -218.556 137.548 -277.369 -29.8179 56.223 30.4629 -63.4337 407.612
20257 1 18.3752 -37.0711 -16.3031 266.975 -0.162529 222.25 -62.9318 328.071 -188.956 -394.254 709.437
27731 2 23.6453 -41.7246 -17.8485 -309.644 195.16 -254.595 -19.1376 -22.9748 -7.80456 -60.9885 482.631
310 2 26.6271 -41.4518 -20.1818 -187.597 206.352 -265.871 -1.77178 -93.0944 37.2425 -73.1066 471.517
299 2 28.6596 -40.6995 -18.968 -199.705 201.849 -165.772 -11.557 -56.1769 54.8133 -74.4892 409.455
27860 2 25.8431 -40.2597 -18.1023 -244.485 201.436 -229.604 -3.18468 -48.1989 42.0366 -74.4343 452.473
27952 1 24.1983 -40.2572 -18.0655 476.246 -401.105 526.79 36.8196 52.2567 -86.8548 -392.128 922.786
25358 1 27.0887 -40.3076 -19.1312 364.635 -430.312 440.054 12.2131 163.756 -89.8631 -380.938 895.937
27588 2 23.7105 -39.477 -19.4521 -160.779 173.439 -239.596 -8.5316 -1.91364 54.0616 -75.208 391.476
27573 2 23.728 -38.9737 -17.1347 -204.851 121.895 -193.316 -40.129 -47.5568 37.683 -70.7951 344.968
17950 2 28.219 -38.9567 -16.0665 -179.453 47.8896 -61.3666 -23.7753 -3.95829 -26.1405 -72.3748 206.339
2875 2 27.1944 -38.7677 -19.7619 -134.192 169.445 -166.659 -14.6911 -85.6221 26.2607 -83.0929 357.515
133 1 26.9071 -37.92 -16.017 333.567 30.4281 73.7947 90.6676 52.3069 41.1094 -385.58 344.336
22775 2 25.7516 -37.5359 -17.107 -156.704 58.6887 -134.949 -57.773 -37.2711 -4.19035 -81.4227 237.518
27652 1 24.1141 -37.4435 -17.3038 341.068 -179.581 384.217 150.199 120.594 -62.8473 -375.145 646.962
24955 2 23.3565 -37.1694 -18.7027 -124.82 105.885 -215.205 -36.749 -64.719 80.5428 -81.3886 343.984
27747 1 26.7582 -37.5893 -20.7556 218.637 -238.478 238.127 34.8452 139.444 -27.9876 -366.111 531.573
232 1 34.3721 -42.6446 -17.6091 934.252 -550.682 212.847 330.287 73.0924 42.1274 -400.614 1415.22
9802 2 33.3764 -41.5304 -16.9956 -467.688 288.723 -58.2395 -156.69 -49.561 23.435 -67.4294 716.077
24888 2 29.4847 -42.5983 -20.7161 -235.717 230.006 -242.778 -40.4361 -81.3547 -17.3431 -72.7673 495.883
2622 2 33.9313 -41.3768 -20.3334 -374.356 286.248 -111.955 -108.555 -37.8841 -22.9217 -79.4713 610.855
112 1 29.6036 -41.0831 -20.263 423.767 -478.951 345.456 55.28 156.009 -70.4417 -380.513 920.548
22773 2 31.202 -40.8708 -20.1928 -267.387 263.929 -116.222 -56.0101 -34.4043 35.5218 -78.7718 491.507
28143 1 32.8236 -40.158 -16.5116 901.456 -433.254 7.89808 219.694 45.1359 -48.3853 -388.829 1243.06
2601 2 31.216 -39.9646 -16.2785 -342.196 163.935 -43.2926 -56.7203 7.24284 -11.3776 -73.3937 452.133
28031 2 32.9301 -39.0797 -20.1855 -329.01 305.271 -71.0037 -49.158 -64.7095 10.6733 -82.7218 570.425
24924 2 33.316 -39.0417 -17.5696 -419.049 221.89 5.89888 -69.1204 -52.5598 -4.36128 -77.6035 584.548
12879 1 29.8633 -38.8952 -16.3339 445.33 -147.523 83.3 58.1473 -31.2957 67.0593 -381.312 542.662
5202 2 29.8807 -38.5225 -17.9303 -213.331 127.694 -71.9458 -24.1051 -24.7423 -9.69603 -83.0874 303.206
27842 1 33.1661 -38.0729 -18.966 675.921 -544.802 91.4811 23.6157 151.037 56.2297 -368.255 1094.48
28042 2 30.3586 -37.7567 -15.3173 -252.758 33.5611 -4.86596 -6.12497 28.8061 -27.6387 -77.2493 278.113
27579 1 30.2376 -37.2968 -18.8807 368.739 -305.869 156.346 -28.0806 99.2955 22.1188 -356.983 624.769
25172 2 30.2005 -37.2183 -20.4886 -173.579 161.674 -61.3413 27.4223 -80.4521 34.1412 -89.6221 335.462
22883 2 33.5913 -39.6464 -15.1405 -487.947 176.199 -22.8742 -77.8566 27.3466 18.0988 -70.4576 608.208
193 1 32.6912 -40.5589 -20.7843 606.409 -606.464 178.656 185.165 77.0067 -20.8932 -372.295 1121.24
2768 2 -23.6105 -32.3753 -19.9377 -127.695 51.4936 -102.888 136.736 -83.9816 90.1433 -99.526 360.423
5187 1 -24.9044 -33.1362 -19.4926 415.418 -186.366 210.855 -189.916 158.192 -140.66 -329.244 723.547
13173 2 -19.4539 -31.7847 -18.4246 -67.2359 -75.7426 -62.7426 59.0201 121.246 50.5753 -66.9834 249.713
3095 2 -14.6623 -32.1112 -17.3079 -15.8085 -28.7094 10.0668 -57.2153 45.3054 20.2803 -41.9429 135.581
13079 2 -15.7689 -31.1421 -15.0326 -64.749 -120.227 -58.0343 -38.1968 171.27 -11.773 -57.7591 310.304
3066 2 -17.2572 -31.1754 -17.1112 -69.4364 -153.928 -17.0277 25.4738 138.905 47.4716 -58.0762 284.437
3120 2 -8.02174 -36.1573 -16.9763 -526.056 70.208 169.861 -67.4861 71.7273 -32.9604 -79.8782 676.194
7718 1 -8.0976 -34.5652 -16.7061 1013.6 -275.321 -362.614 216.079 -75.4717 66.8553 -383.149 1397.14
7987 2 -8.45495 -34.0496 -15.2205 -498.82 101.831 215.768 -142.099 42.9994 -2.85856 -69.2287 712.985
15286 2 -9.35485 -34.1886 -17.7285 -445.35 154.103 123.563 -103.219 38.8684 -14.5283 -76.4191 615.708
15097 1 -9.78516 -32.6863 -18.0973 811.798 -207.756 -255.155 227.184 -99.3118 -38.8253 -379.43 1130.93
10499 2 -10.5334 -32.4095 -19.4446 -298.499 87.8299 71.9372 -126.54 127.214 29.9241 -80.2148 492.582
10074 2 -8.2507 -32.0352 -18.2879 -379.186 121.222 70.3439 -76.8337 60.0748 36.8962 -84.3924 510.057
20189 2 -10.3003 -32.1056 -16.7515 -398.782 48.1759 179.335 -124.738 -13.265 13.2045 -70.5074 568.618
5466 2 -7.20065 -36.7429 -19.8008 -465.41 97.8363 -38.6187 -36.4044 130.173 -105.66 -96.0463 589.331
100 1 -10.2113 -32.4861 -21.0066 499.989 -242.706 -20.3342 278.836 -365.06 -46.5311 -350.157 1037.03
20085 2 -9.61923 -36.7463 -20.6479 -301.877 141.101 -109.951 2.64933 159.236 -139.211 -87.2583 531.295
7766 1 -5.6618 -37.0355 -18.8539 807.228 -90.2445 64.5719 99.6825 -248.756 157.367 -370.473 990.062
7858 2 -5.20517 -35.5623 -18.6993 -348.423 109.904 -52.6055 39.213 131.286 -61.1851 -76.4932 479.106
482 1 -6.99504 -32.0536 -20.6349 441.256 -267.779 0.469608 -56.6234 -163.877 1.46584 -352.536 688.972
5169 2 -6.66602 -34.1053 -17.266 -422.16 154.644 100.988 -12.7549 81.5041 -47.3713 -75.3555 576.005
12674 1 -5.58085 -33.9837 -18.4024 665.269 -319.87 51.3338 -152.272 -253.022 90.1876 -382.904 1014.21
10073 2 -6.27109 -33.2674 -19.7979 -299.825 162.795 -24.126 50.3365 100.925 -27.8101 -87.2623 450.514
10185 2 -4.3259 -33.0957 -18.0085 -205.594 36.0177 -58.7623 137.072 167.236 -34.1192 -62.9751 433.845
10085 2 -1.88603 -32.4629 -17.1715 -54.0564 -126.671 -58.0367 118.504 168.786 -37.8067 -48.2752 369.978
12784 1 -3.26765 -31.8915 -17.7654 189.278 187.79 52.0682 -290.016 -350.172 36.6889 -419.351 801.781
13090 2 -1.00257 -31.3872 -15.0444 -113.697 -130.507 -21.157 24.7554 29.4943 -61.056 -56.9836 161.349
22974 2 4.60934 -36.4343 -17.0195 -259.956 -12.7404 -101.417 31.7828 4.6173 10.1413 -67.5584 224.632
13131 1 4.49939 -35.1606 -18.1154 475.97 83.0486 -28.3124 80.3715 -117.578 88.7591 -403.994 543.168
20181 2 3.33736 -35.0451 -19.1594 -177.622 -70.8883 -6.73095 -16.5438 126.241 -46.1473 -52.6193 278.166
19699 2 0.672663 -34.6327 -18.7058 32.8101 -42.0546 -125.125 18.6665 65.838 -7.021 -33.428 181.443
12880 1 1.86737 -34.3593 -19.7032 169.288 130.076 156.698 28.4784 -184.576 10.5067 -446.855 325.84
20466 2 4.43049 -34.0319 -16.9095 -225.113 -9.03401 -41.7413 -83.0028 19.7868 -60.6964 -72.8385 271.27
12999 1 4.66992 -33.8201 -15.3795 426.629 -31.6035 158.69 176.204 106.837 70.8156 -376.145 549.017
15108 2 0.69361 -32.9644 -15.8471 -10.7733 -104.967 -103.67 -60.8933 20.4599 -60.6722 -48.3807 179.374
25355 2 2.20812 -32.7727 -19.7022 -100.628 -67.2328 -43.4593 -95.526 66.0262 7.18234 -53.3358 207.565
10274 1 -0.532281 -32.0785 -16.4563 83.5723 311.79 98.0147 -56.4379 -179.596 109.164 -433.891 437.11
17750 1 2.92135 -31.356 -19.767 186.677 161.288 -17.6431 226.043 -118.367 -7.28496 -408.759 482.37
10643 2 4.28828 -31.3364 -18.9053 -125.918 -24.2087 23.8578 -105.221 59.2636 -33.2515 -69.4399 254.189
12867 1 5.30632 -36.8734 -15.656 577.049 -31.9018 302.09 -86.6722 140.223 -68.8817 -384.894 612.164
12610 2 5.24636 -35.2537 -14.7608 -272.213 -75.5123 -94.4982 -29.985 -76.1159 -13.1335 -83.5548 236.458
22956 2 8.86545 -36.4461 -16.526 -168.1 42.4309 -30.493 -39.5595 -62.0363 82.8705 -79.7059 266.704
17780 2 10.643 -36.2263 -19.7171 -178.8 73.7466 -42.02 -14.2728 -65.0713 7.54948 -73.2529 247.851
15193 1 9.85961 -35.2114 -20.6613 367.801 -122.662 46.7422 49.3898 85.3856 58.7232 -386.464 475.079
27913 1 9.05081 -34.9972 -15.9836 225.461 -12.796 71.9142 31.1872 95.6813 -15.1646 -365.509 273.554
17946 2 5.87722 -34.817 -18.8655 -230.842 -22.9765 86.471 -65.4401 -19.7451 -34.3708 -70.5852 309.027
22855 2 8.41752 -34.7697 -20.0161 -211.03 34.6445 50.1928 -49.7183 -45.7541 -20.4651 -74.5295 281.727
20275 2 7.6617 -34.3062 -16.4877 -153.686 6.85752 -32.6104 -10.3127 -60.6143 -18.4092 -86.0553 182.63
13154 1 6.83354 -34.4029 -20.0942 406.416 18.647 -171.016 139.877 50.6539 52.1559 -392.701 578.306
13056 2 10.3662 -34.2233 -16.3714 -100.477 -20.0061 -17.388 -17.2094 -59.9355 -35.2402 -82.3429 148.607
14987 2 5.92524 -32.8561 -15.3055 -199.083 76.5468 -58.7845 -61.6235 -58.9234 -43.8783 -84.9203 290.808
13035 1 7.09843 -32.8318 -16.364 331.581 -119.76 72.8058 72.3353 83.5951 139.114 -363.654 498.596
17878 2 6.81462 -32.7867 -20.4949 -168.485 4.49283 75.5772 -73.2094 -1.47963 -11.6478 -72.4296 252.513
7769 2 6.61611 -32.152 -17.7439 -197.881 53.6736 -2.25551 -58.3454 -46.1788 -67.9338 -79.916 287.739
15647 2 8.38476 -31.9176 -15.9001 -134.353 12.8148 -29.7166 -46.5818 -54.2316 -72.1476 -86.0285 219.446
10745 2 11.063 -31.8883 -15.5599 -68.6186 -44.8667 -30.2345 -21.1566 -72.2061 -69.5837 -80.6766 180.653
17945 2 11.0766 -31.114 -18.855 -66.0238 -25.7612 -17.2008 -37.7245 -54.0161 -46.8087 -79.1751 147.088
18064 1 9.65643 -31.1942 -15.1985 227.246 -22.9759 -0.664341 115.169 113.186 98.9995 -369.59 406.391
20358 2 10.9217 -33.9975 34.7749 -127.95 0.442521 -57.3972 -16.8342 -39.7432 -13.6808 -75.0779 136.214
28013 2 15.6472 -36.3285 -19.142 -125.936 6.66179 -32.5004 31.4167 -49.9414 53.4619 -70.3748 181.497
22981 1 16.8967 -35.3396 -18.6964 255.726 -19.4357 23.9693 -94.5782 87.5784 -135.216 -387.616 412.734
17975 2 12.5781 -34.0751 -15.1458 -22.4517 -63.475 -34.6885 -18.1143 -33.6815 -108.751 -79.5663 202.975
288 2 16.5907 -33.9049 -18.0253 -91.7312 -1.91695 -42.4058 19.6058 -50.4515 35.577 -77.6921 136.586
20473 1 11.6873 -33.2689 -16.1747 100.076 115.124 66.1481 33.8217 135.887 177.812 -374.191 394.419
5386 2 12.4849 -32.882 -17.5128 -33.2024 -59.9877 -35.2757 4.97429 -62.4377 -63.3168 -77.2758 156.406
20381 2 12.909 -32.4947 -20.0709 -86.2593 -41.9293 2.02579 -17.2043 -14.5671 37.3235 -74.5948 107.468
17777 2 16.5433 -32.2904 -15.8717 -55.3175 -13.2294 -66.0049 25.9012 -71.7905 -41.2323 -84.0897 157.829
20487 1 12.562 -31.7829 -18.5998 58.3315 110.024 77.9179 -15.4811 83.0794 77.7873 -380.028 204.013
12877 1 16.7594 -32.3814 -17.4955 90.0517 14.433 136.1 10.919 76.1578 29.5474 -370.191 178.038
15297 2 15.851 -31.3426 -18.3768 -18.8067 -3.7359 -77.3741 -2.3312 -9.1607 -36.4821 -79.7756 93.8127
27756 2 17.3919 -36.8012 -15.0725 -168.527 -53.4069 -19.1754 69.7231 -201.853 22.2981 -73.2434 395.822
4920 2 17.6888 -36.2721 -17.6034 -132.141 16.8292 -72.8798 52.4238 -93.8069 93.1605 -74.0445 278.49
27653 2 19.8001 -36.2067 -16.0396 -39.3512 -4.67669 -166.128 -3.45894 -194.873 60.8649 -71.6394 383.075
27839 2 17.6733 -35.1217 -20.109 -118.663 -4.35303 11.4973 38.5507 -54.8225 64.5875 -71.6495 202.78
25346 1 19.8363 -34.7357 -15.4269 123.186 87.2595 259.035 -57.8419 375.261 -58.7551 -377.495 683.726
27957 2 19.8729 -33.8425 -16.8277 -23.84 -42.7617 -124.454 14.6014 -172.903 31.5334 -84.8917 319.196
25348 1 19.864 -32.2489 -17.2909 44.184 77.8872 134.157 4.74594 290.421 -8.05 -359.657 509.406
15683 2 20.6277 -31.9866 -18.6392 -26.8197 -44.1466 -35.5274 -28.1635 -107.195 -1.1503 -86.5958 192.564
27836 2 22.8256 -31.8493 -19.7018 -27.7218 -5.67925 -60.8692 -37.2799 -66.9052 3.52335 -87.1786 141.247
10380 2 18.3092 -31.9116 -17.6354 -52.3046 -3.98512 -57.0671 -13.1282 -97.4722 -20.9019 -85.6443 181.433
15447 1 21.2621 -31.7868 -20.1254 108.757 80.5331 -12.9309 93.9485 62.8006 -9.01427 -365.003 225.221
23049 2 20.3083 -31.5633 -15.8851 -42.0104 -41.4878 -36.4882 37.054 -118.985 53.833 -86.9522 235.187
27474 2 27.7911 -36.5509 -16.2096 -111.639 -9.26436 -40.0621 -27.8348 -33.306 -41.601 -76.4782 138.276
22747 2 26.0506 -36.4835 -19.8197 -104.354 85.9754 -142.722 -35.1855 -98.2887 0.655081 -87.9397 278.742
20480 2 23.8452 -35.8898 -16.8057 -138.102 54.7237 -180.873 -117.788 -100.858 21.3889 -80.5652 347.52
27748 1 28.3314 -35.4456 -17.2205 136.581 -191.834 243.584 -45.0221 76.2326 43.6778 -371.834 428.586
25455 1 26.2139 -34.9782 -19.363 115.105 -198.033 311.639 68.2894 223.64 -6.33236 -357.106 601.978
317 2 27.1421 -34.8037 -18.0943 -11.5836 91.7484 -185.637 -11.1805 -73.5142 -7.01636 -85.0633 275.124
2885 2 24.8061 -34.4776 -18.7798 -93.5159 87.2408 -184.552 -68.1695 -137.93 22.5384 -89.2356 360.493
27676 1 23.7125 -34.5766 -17.6177 213.953 -124.313 432.541 192.963 270.49 -79.1672 -360.978 765.603
405 2 23.2776 -33.087 -17.4681 -75.645 14.3514 -169.158 -45.6117 -144.595 69.1195 -87.7054 329.48
25153 1 23.695 -31.7506 -18.266 81.5494 -86.5938 265.621 -11.5124 247.131 -101.665 -357.428 554.735
30 2 25.1432 -31.5054 -18.8712 -15.4556 65.9356 -127.949 39.9006 -141.182 38.7361 -87.8052 312.266
1038 2 26.6639 -34.1032 -20.6024 -83.3004 114.887 -97.7969 -2.82021 -81.6844 -0.988741 -87.7718 249.81
5313 2 31.8188 -37.2314 -18.6095 -268.388 212.119 -42.4547 20.629 -58.2786 -36.3369 -88.2081 434.508
5364 2 34.9318 -34.3825 -20.2437 -249.826 155.685 -90.8566 86.1902 -88.2284 68.0557 -99.4303 429.861
7892 2 29.1868 -36.1668 -18.4164 -119.347 111.69 -151.531 31.5132 -30.5771 -12.0948 -89.0484 260.907
503 2 29.3919 -34.5071 -16.5906 -140.777 148.732 -60.6273 68.9284 -12.4639 6.8429 -77.8312 286.173
27744 2 34.1476 -36.8586 -19.493 -318.254 294.344 -83.0416 53.6697 -85.2708 -21.5731 -85.2396 564.235
399 1 33.9656 -35.6213 -20.5147 556.812 -471.793 128.662 -182.969 176.42 -112.724 -345.473 1016.3
5577 2 32.4614 -35.0617 -20.2192 -215.037 210.198 -73.7436 109.747 -89.2812 51.2018 -97.8532 456.747
25468 1 31.2712 -34.0592 -19.976 257.489 -380.98 179.551 -184.716 154.777 -104.53 -339.846 755.621
27478 2 30.9665 -33.7967 -18.4546 -165.491 196.878 -97.5614 93.8029 -69.1909 33.8578 -94.6705 394.346
2869 1 30.4878 -33.4736 -16.929 411.833 -372.787 70.3138 -141.623 53.8416 -48.8602 -364.257 735.072
12871 2 31.4714 -33.4375 -15.6884 -332.845 156.491 95.9196 27.274 11.9699 -15.6057 -81.2362 465.694
25088 2 34.3064 -32.3219 -18.6599 -208.446 114.386 -68.9832 71.6612 -84.9004 93.8669 -105.242 376.976
2724 2 29.7237 -32.0169 -16.9965 -128.504 136.939 -48.2166 16.8514 -58.2748 93.2457 -85.8985 304.496
101 2 33.7109 -34.4735 -15.1084 -423.878 111.208 138.429 50.3653 17.8259 -56.2514 -80.6857 565.402
3185 2 31.7503 -32.7193 -20.7558 -123.515 127.928 -22.0237 30.1066 -50.8232 68.8307 -101.541 269.603
25134 2 30.0212 -34.7491 -20.765 -93.5298 156.728 -73.3515 54.3464 -55.5493 38.3798 -91.5747 283.766
5592 2 -21.2686 -31.0283 -20.1674 -33.8154 -40.4044 -59.3344 136.853 -38.6195 106.352 -90.4807 308.414
195 1 -22.8656 -31.0361 -20.4196 141.077 -62.215 77.8221 -332.454 185 -240.106 -335.661 799.797
28057 1 -19.7211 -30.7957 -19.6881 34.9244 237.397 50.5373 -195.015 -36.7209 -144.234 -374.585 467.574
10090 2 -23.4527 -29.7624 -19.6718 -54.6474 69.5286 -40.0216 138.411 -107.203 164.646 -103.038 432.542
28048 1 -22.8833 -28.3268 -19.1638 35.7601 -8.27597 -3.38401 -194.999 184.329 -316.969 -327.759 720.529
25620 2 -21.7589 -28.0138 -20.2649 -25.1734 -15.1021 49.1199 103.79 -100.09 112.496 -100.609 324.361
7593 2 -22.0524 -28.1514 -17.7892 10.1588 -70.6577 12.8718 77.5916 15.5118 159.043 -97.523 318.474
27739 2 -24.1642 -27.2965 -19.1572 0.0619868 -40.1368 18.2813 90.638 -97.4921 103.989 -109.236 297.122
414 2 -20.893 -26.944 -15.7022 57.8793 -197.399 73.9474 72.6847 129.581 77.4271 -91.621 392.091
27856 1 -21.265 -26.8786 -17.2317 -106.845 262.271 -123.04 -222.431 -123.446 -220.466 -341.734 694.584
28220 2 -20.0037 -26.2522 -17.8862 86.2706 -126.401 85.8182 135.588 34.8689 82.6873 -93.665 352.767
28040 2 -24.0748 -25.9243 -15.4666 -16.1866 -140.457 94.5782 120.98 35.7467 140.852 -100.773 385.664
3082 2 -22.3707 -25.7149 -17.3118 40.7795 -105.633 35.8944 140.364 15.0855 93.6941 -103.645 326.909
27670 2 -24.942 -25.2173 -17.7868 28.449 -21.3734 -3.64647 115.907 -5.35611 79.6438 -108.381 247.654
22856 2 -25.0297 -28.1981 -15.7661 -74.226 -108.06 86.9181 137.03 15.1687 95.8765 -99.0834 342.291
5398 2 -19.2691 -30.254 -15.8874 -60.1091 -154.926 -15.6324 36.4889 186.403 88.7013 -69.716 383.434
480 2 -19.1956 -29.6615 -18.5818 9.94108 -148.419 47.5027 76.4218 75.8528 83.501 -78.5938 296.878
7969 1 -15.676 -31.1618 -16.689 66.6437 226.499 -22.0662 13.0046 -184.469 -9.63001 -429.985 387.912
5474 1 -18.7713 -30.7225 -17.3384 116.709 328.414 -0.0708538 -100.058 -321.004 -143.502 -398.624 695.789
5563 2 -15.351 -29.6095 -17.1975 8.35674 -198.488 86.6471 25.1566 32.44 9.33442 -64.3608 265.377
18235 2 -14.5798 -28.5687 -19.4637 27.3537 -222.536 134.302 -31.6029 34.1727 129.719 -78.8645 396.974
5282 1 -14.6435 -28.3646 -17.8061 -5.20045 401.06 -260.015 61.139 -34.3434 -106.081 -386.108 618.071
28136 2 -15.2465 -26.9188 -17.4772 2.24079 -160.568 111.587 -32.1714 20.4573 48.0643 -83.1486 259.917
5558 1 -14.9273 -25.3652 -17.2573 -36.2237 327.996 -197.6 57.5185 -46.3836 -60.1321 -352.29 494.673
8064 2 -17.7696 -28.3549 -14.8024 -4.78113 -151.458 2.98992 3.87367 134.939 52.0425 -79.8449 292.421
417 2 -17.1749 -25.5626 -20.7398 90.7666 -160.71 67.7541 45.0776 20.649 204.101 -96.0953 436.268
279 1 -14.0886 -28.7167 -21.0165 -111.3 352.39 -75.6197 108.635 -168.598 -360.106 -355.108 842.286
396 2 -13.1557 -28.3935 -17.2787 -13.7041 -198.546 135.365 -105.491 28.8418 13.4618 -75.4364 346.939
5485 1 -10.6455 -31.1418 -15.5236 671.747 21.7497 -372.308 246.747 36.0054 18.1625 -391.908 1010.67
7966 2 -11.2904 -29.8382 -16.2303 -204.448 -95.1787 187.681 -141.624 10.4149 -17.2952 -73.647 429.246
12307 2 -8.73095 -29.6441 -18.4182 -279.6 73.7655 78.7845 -54.4747 74.5325 34.6822 -86.5262 394.769
12577 1 -7.50007 -30.6125 -18.3293 551.413 -184.927 -85.7329 49.679 -129.522 -118.155 -369.183 760.663
12949 1 -9.52208 -28.4235 -19.1166 382.389 -62.4523 -156.811 67.1811 -173.565 -46.2095 -352.846 599.235
7708 1 -11.6431 -28.4003 -16.7676 206.112 266.206 -370.531 250.239 -52.7332 9.69443 -378.231 753.17
3105 2 -10.7045 -28.1029 -18.0741 -128.75 -89.1423 121.703 -78.6493 39.7281 38.8411 -85.6145 286.694
7895 2 -11.3595 -27.4313 -15.5091 -107.68 -115.039 196.97 -91.9148 41.7365 -12.1924 -80.9463 355.14
5675 2 -8.40657 -27.2395 -19.0868 -149.125 -21.5087 63.9847 32.3299 64.0414 13.429 -93.0287 224.691
5654 1 -7.42709 -26.5409 -18.0584 242.933 77.0918 -215.391 -108.401 -165.641 12.4192 -358.908 528.754
15273 2 -8.41496 -25.5595 -17.1782 -104.978 -57.7711 153.436 22.5904 55.6899 8.35909 -87.7762 260.484
8070 2 -10.075 -28.6166 -20.6143 -138.248 47.5142 48.4726 -18.2456 126.171 69.9201 -95.0821 313.224
5301 2 -8.11062 -28.4656 -14.8151 -195.36 -103.054 199.073 25.5316 62.5399 -3.27952 -78.761 376.046
10647 1 -9.54857 -25.1807 -20.7732 61.9446 91.4122 -98.5579 -66.9638 -69.7341 -183.85 -329.522 401.002
5482 2 -3.14595 -31.0241 -19.1449 -52.4519 -98.729 -60.431 156.716 129.449 -36.8849 -64.6997 360.373
12619 2 -6.9359 -27.6352 -16.9881 -174.881 -65.3933 148.719 46.6108 113.322 -3.65446 -79.7963 355.468
10446 2 -6.81425 -30.739 -19.7722 -189.83 116.975 8.20858 18.0234 46.2778 23.7426 -85.4277 285.797
5483 2 -3.97002 -30.9345 -16.6327 -125.549 -90.5185 46.6172 56.6995 140.238 24.6325 -58.3157 308.71
8055 1 -5.40526 -30.5768 -15.974 303.162 53.1703 -269.428 -60.053 -238.542 -105.261 -411.666 679.69
3080 2 -6.39616 -30.5303 -17.2305 -224.118 27.0025 73.6572 18.4751 87.8987 74.5263 -72.5097 343.248
10098 2 -5.50001 -29.0718 -15.3923 -127.825 -103.244 135.967 61.6458 112.657 27.5647 -67.5636 339.796
8138 1 -6.6738 -27.9924 -15.4593 303.824 225.433 -357.88 -148.061 -198.761 -1.99139 -383.375 759.224
12948 2 -2.08435 -27.5494 -20.3639 6.22186 -116.583 -17.805 3.71165 118.303 41.4887 -78.6881 244.744
13271 2 -3.64888 -26.8392 -14.9458 -11.2374 -116.888 68.1605 52.1365 72.5692 -31.5342 -77.014 229.764
15157 1 -2.49185 -25.991 -20.5712 -43.3172 300.995 -42.1913 -13.6602 -220.358 -215.4 -363.486 635.286
17866 2 -6.11709 -25.6458 -18.6243 -15.2861 -97.7643 94.4187 75.2033 70.1538 36.977 -89.1078 252.427
8217 2 -3.97724 -25.3763 -20.2487 13.46 -160.815 49.3143 32.9679 96.9477 111.21 -90.9795 326.292
17960 2 -1.54684 -25.1676 -19.5637 22.5976 -165.623 56.9936 1.75362 99.5203 102.731 -84.0818 323.214
10452 2 -6.19234 -26.6559 -14.8031 -80.9725 -117.038 153.484 94.0877 97.162 -25.7637 -78.4322 348.707
15547 2 -1.92827 -28.9913 -15.0713 -87.366 -63.3957 26.1126 8.34492 43.3606 -27.4143 -67.4126 137.244
10455 1 -2.14008 -27.4029 -14.938 93.6134 162.959 -54.2323 -10.3751 -89.2214 77.6031 -382.057 281.408
12688 1 -3.15236 -30.6396 -20.7295 81.265 116.201 192.644 -311.355 -211.175 105.043 -394.001 683.701
5395 2 -1.08627 -26.5407 -15.803 -84.398 -114.202 59.5743 -33.8741 62.5043 -19.8645 -80.7363 205.557
17982 2 -0.000264151 -30.8747 -17.4234 -41.2406 -180.649 -17.1498 0.893496 83.402 -45.8651 -58.1948 224.843
10197 2 1.92063 -30.2829 -19.0492 -24.037 -146.543 -5.47838 -92.1861 55.1074 -8.77706 -64.9979 229.046
20175 1 0.736525 -29.6808 -18.1572 33.5327 339.155 -35.0274 71.712 -140.973 33.6642 -403.919 444.417
5400 2 -0.0988056 -28.9201 -19.2629 7.36682 -190.322 8.67102 -16.4782 109.089 -21.6663 -68.4062 277.965
12765 2 3.63499 -28.882 -15.5864 -69.7956 -93.3092 21.9194 -100.659 -28.6042 -41.8899 -78.6767 221.894
10379 2 1.2565 -28.7981 -16.9082 -32.3268 -119.947 27.8098 -53.574 19.3628 -1.05199 -71.3434 162.177