ITEM: TIMESTEP
640000
ITEM: NUMBER OF ATOMS
29952
ITEM: BOX BOUNDS pp pp pp
-2.5615833775063237e+01 3.5601128117061187e+01
-8.2738117214952965e+01 9.2723411549151692e+01
-2.1035324467156940e+01 3.4903177627851115e+01
ITEM: ATOMS id type x y z v_StrAtomXX v_StrAtomYY v_StrAtomZZ v_StrAtomXY v_StrAtomXZ v_StrAtomYZ c_PEAtom v_VMS
4896 2 -16.0425 -70.2023 -17.7332 -341.379 48.9383 -515.464 -19.4922 39.5586 -15.087 -169.196 507.069
7392 2 -12.1655 -70.0888 -14.6098 490.35 -422.321 -862.348 24.6206 227.032 78.7356 -261.655 1266.19
7481 2 -14.3868 -68.7892 -16.1964 -105.605 -112.893 -756.149 -246 430.584 -241.684 -269.868 1153.91
4812 2 -16.664 -68.9718 -15.3229 -471.381 -108.637 -742.327 -299.747 -161.641 279.026 -260.395 940.625
7396 1 -13.3792 -69.0901 -15.0125 503.782 318.582 1998.46 -67.248 -108.721 -138.382 -746.605 1628.39
4982 1 -15.9451 -69.0285 -16.7816 870.048 486.041 1454.76 259.497 15.1377 24.4981 -818.809 958.326
7478 1 -10.797 -69.1472 -14.5208 597.682 320.814 1980.96 71.5152 -12.7375 102.892 -736.468 1555.86
7399 2 -13.9956 -68.3378 -13.7093 -497.495 -75.681 -664.329 -191.252 -223.345 433.998 -264.468 1049.08
2400 2 -19.5995 -66.9459 -18.0666 108.487 -576.007 -294.681 -106.941 440.593 -26.2699 -279.568 986.841
4901 2 -20.9335 -66.8535 -14.7096 5.27771 -550.506 -562.153 -116.547 100.455 -156.305 -288.097 678.102
2316 2 -21.9672 -66.6271 -17.1171 -452.4 -478.353 -7.87908 -0.473688 -192.931 -20.6151 -267.936 568.112
2494 2 -22.0127 -66.5808 -19.8526 -141.934 -579.004 -93.1863 58.5374 579.424 -74.6366 -268.679 1117.54
2410 2 -23.7096 -66.4877 -15.0019 382.994 -479.002 -657.44 -236.617 -213.168 -111.944 -279.11 1127.2
2486 1 -21.0844 -66.3739 -18.481 1126.24 777.12 1132.67 24.9196 -158.242 -83.154 -775.76 471.065
2402 1 -22.1954 -66.2554 -15.5255 492.131 845.189 1331.47 148.933 134.92 266.996 -776.964 931.565
2407 2 -23.7237 -64.8518 -19.8446 -526.471 -398.87 -253.885 -137.99 -160.377 163.559 -264.78 519.945
4985 2 -20.7092 -64.796 -18.5783 -560.296 -145.499 -559.492 200.192 -43.2335 -114.056 -276.048 580.162
2408 2 -22.0603 -64.6544 -15.499 -433.679 -442.916 -799.674 -147.886 -109.166 -32.3526 -272.582 484.933
2401 1 -24.3835 -63.8995 -18.6908 810.488 1072.24 774.324 25.6865 -49.1049 173.008 -791.394 422.251
2409 2 -23.3745 -63.8057 -17.4472 -522.974 -581.776 -394.236 -15.5503 17.3675 10.6287 -272.598 171.96
4897 1 -20.2871 -63.2354 -18.3394 653.872 913.564 1038.59 5.22325 194.38 477.15 -772.724 954.982
2403 1 -22.4182 -63.3099 -16.247 774.533 594.716 964.634 158.922 97.1111 -35.5272 -781.721 458.806
2406 2 -21.0924 -62.7629 -17.007 -358.901 -463.35 -429.233 -124.096 -224.466 -9.40433 -268.622 454.015
2412 2 -22.9569 -62.1892 -15.2791 -490.957 -538.42 -553.025 51.6006 92.9292 130.527 -268.718 296.928
11 2 -24.7147 -62.4773 -19.3168 -447.132 -519.033 -445.841 -71.5968 42.3063 -67.3311 -269.751 199.029
4905 2 -18.7363 -63.0109 -18.0651 -198.435 -529.629 -598.035 83.7027 79.4064 -92.1207 -279.09 449.909
2507 2 -20.7162 -62.2328 -19.5245 -441.368 -252.064 -589.262 6.76207 -63.7152 -212.542 -274.973 483.263
2416 1 -25.195 -66.1684 -14.4008 525.612 943.196 1613.4 -214.342 -75.8802 188.8 -752.323 1079.56
4912 1 -19.4776 -66.6339 -14.1658 317.591 812.747 1163.82 268.055 29.4052 -71.0362 -728.949 880.656
2506 2 -18.3279 -61.4947 -14.7102 -300.28 -485.714 -604.373 -27.3934 -134.201 14.5221 -263.429 356.907
4904 2 -18.3892 -66.8502 -15.5747 -103.127 -490.239 -44.7945 -328.619 135.907 -64.6979 -317.12 753.512
4900 1 -18.1824 -66.7527 -17.2854 1005.66 699.815 1079.38 62.4063 -48.4015 332.978 -751.974 687.648
2500 1 -19.9629 -61.1046 -20.3829 919.152 667.067 991.374 -15.4341 -54.0544 51.4146 -780.823 323.078
7505 2 -10.499 -61.9612 -6.5797 -237.605 -693.352 -470.118 -54.156 224.766 158 -238.939 625.34
5021 2 -15.8674 -61.1869 -0.136388 -554.006 -687.844 -518.137 -12.7144 74.0541 -25.464 -234.243 207.08
4 1 -24.6226 -61.6255 -20.6648 647.174 655.148 849.623 29.9733 -37.3367 95.4881 -804.609 271.414
2404 1 -23.1845 -66.0527 -20.8136 1152.61 745.485 1323.62 90.4372 -295.541 24.4241 -783.715 743.625
29898 2 -25.5904 -62.9813 3.04521 -687.136 -475.268 -872.035 -95.3209 -108.243 311.149 -251.118 686.366
7486 2 -11.9534 -68.0674 -15.3141 24.8117 -257.958 -1161.98 -88.4335 74.82 -50.032 -295.495 1095.73
4990 2 -16.8727 -67.723 -17.3048 128.453 -312.926 -771.241 -349.331 232.985 -141.971 -264.175 1093.88
4898 1 -17.2262 -67.6812 -14.5036 478.641 927.029 1437.26 394.771 -36.7108 82.2963 -723.333 1087.23
4903 2 -17.7511 -65.245 -17.5604 -467.156 -199.846 -592.709 168.562 -106.98 -175.339 -280.241 576.702
7394 1 -11.8951 -66.3924 -15.1044 768.446 271.663 1285.15 41.3881 -4.88735 433.065 -762.758 1156.86
7402 2 -13.2539 -66.1494 -14.2977 -59.4641 -591.572 -897.884 12.2288 -59.1662 9.92729 -271.229 742.431
7400 2 -12.0893 -65.6126 -16.4404 -573.486 -271.933 -783.319 -29.3486 185.769 -196.361 -277.966 648.095
7401 2 -13.7373 -64.5573 -18.3038 -90.6978 -582.152 -266.013 59.9536 361.085 -84.1232 -279.357 780.553
7398 2 -11.1567 -64.3653 -18.4653 -219.206 -685.845 -185.999 -67.8779 -264.839 -35.351 -271.647 679.957
7395 1 -12.3854 -64.3975 -17.3939 858.837 1039.57 946.66 -135.923 -180.133 613.525 -780.632 1143.03
7393 1 -14.7573 -64.0244 -19.413 825.592 861.502 1182.31 53.2377 142.223 446.873 -761.032 885.436
4899 1 -17.3086 -63.6761 -17.6869 507.238 851.047 1013.45 -47.9431 248.612 197.709 -774.931 714.146
4908 2 -16.8307 -63.0424 -16.2578 -469.374 -446.654 -368.488 82.4733 75.7704 119.492 -269.678 298.105
7404 2 -12.5451 -62.9943 -16.4313 -267.71 93.8468 -133.541 85.4995 99.6927 379.853 -265.154 764.739
4902 2 -16.137 -63.5282 -18.6841 -177.805 -492.206 -807.9 -83.2009 -132.223 -187.611 -279.67 690.344
2498 1 -16.8642 -61.7254 -15.395 980.795 738.615 971.784 -84.2052 -65.2268 -101.437 -804.242 348.502
4994 1 -12.0385 -61.8979 -15.2637 785.872 877.03 1394.9 -10.5593 -3.65149 -27.9557 -800.242 571.339
5002 2 -13.1912 -61.9206 -14.0713 -355.973 -459.533 -361.896 24.286 -266.279 66.2229 -256.235 487.633
4997 2 -15.7537 -61.6684 -14.2363 -372.168 -504.856 -536.37 44.927 124.811 -47.0665 -257.22 286.732
7397 2 -15.9396 -66.8095 -14.0619 209.53 -477.361 -515.395 225.113 277.485 1.55047 -287.617 939.371
7493 2 -10.6716 -62.2485 -14.5705 -379.976 -365.429 -490.58 49.4535 243.645 5.31289 -273.733 446.726
5003 2 -13.9469 -62.7622 -20.0694 -326.782 -380.388 -601.828 25.5452 -148.34 -238.177 -276.133 549.487
4996 1 -14.1405 -61.2308 -20.5352 510.87 523.903 1096.83 -255.572 147.411 -183.074 -770.067 835.208
4922 1 -17.6531 -66.6721 2.64538 1356.68 942.384 1212.49 17.0397 -99.1505 47.9891 -856.327 412.269
2512 1 -19.4503 -61.3808 -13.6134 901.395 913.446 960.037 10.3411 193.984 -185.583 -808.67 468.414
4906 2 -18.4731 -67.709 -13.4788 104.672 -313.565 -716.012 -234.292 -108.309 4.15166 -275.627 839.718
4915 2 -19.3721 -65.2936 -13.3802 -506.127 -518.904 -134.271 -5.16233 -60.7036 325.791 -276.254 687.565
2419 2 -24.9559 -65.1548 -13.0886 -358.052 -268.716 307.291 88.9005 239.211 398.962 -267.267 1031.56
16 1 -24.7572 -61.3396 -12.8393 979.109 955.583 985.158 51.6424 93.2156 -60.9996 -823.476 214.391
2422 2 -23.6354 -66.3663 -7.31244 249.012 -353.826 -724.343 -238.632 -204.876 -6.72759 -258.063 1010.42
2414 1 -22.0036 -66.3591 -7.56849 1110.21 1220.24 1057.43 -114.215 211.227 60.9121 -798.332 452.567
2328 2 -21.8418 -66.0071 -9.11682 -608.821 -431.611 -86.6721 15.6357 -42.2965 -373.808 -258.507 798.005
2415 1 -21.8129 -64.7412 -10.1505 719.069 1194.01 743.749 11.0027 183.676 134.357 -821.598 608.43
2421 2 -23.1003 -64.7051 -11.0986 -503.882 -629.053 -372.359 -34.4301 158.682 2.48813 -252.813 358.53
2418 2 -20.6335 -64.6006 -11.1555 -729.208 -438.131 -327.576 43.2915 -181.926 -38.3624 -262.645 488.321
4909 1 -19.3775 -64.1973 -12.1123 831.547 703.053 872.694 103.938 -100.443 -91.5213 -797.91 333.609
2413 1 -24.5168 -64.2925 -11.7066 835.238 1098.53 999.677 132.184 113.772 74.7464 -821.867 401.347
23 2 -24.4417 -62.7333 -12.1308 -541.349 -269.148 -616.783 -19.8739 -89.6194 -15.5618 -254.545 355.419
2424 2 -21.9236 -63.4931 -9.0856 -473.486 -320.061 -150.658 -66.1104 -94.684 366.855 -245.44 722.483
14 1 -22.0598 -62.3898 -7.82195 925.401 1197.73 1078.73 177.492 140.543 -46.0908 -852.454 464.82
2519 2 -19.5371 -62.8612 -12.9323 -482.835 -413.12 -471.808 -74.6742 28.3059 -141.457 -264.315 288.749
22 2 -23.433 -62.6759 -7.05362 -298.111 -529.156 -353.919 -72.9858 -356.39 36.5334 -237.966 666.804
4913 2 -20.9612 -67.343 -6.6246 -161.881 -709.193 -57.9966 -9.26378 331.882 -130.766 -231.447 865.559
4917 2 -18.1421 -64.2006 -11.1917 -696.192 -536.439 -436.282 -16.5472 -22.7333 146.925 -270.812 344.508
7429 1 -14.4615 -63.6917 2.32001 671.807 870.737 1402.35 -122.826 -211.959 35.1752 -878.099 782.105
7408 1 -14.4396 -66.7723 -13.3975 601.626 883.141 1275.75 14.2216 191.047 -208.435 -776.885 764.431
5008 1 -14.5382 -61.9146 -13.2218 864.638 896.371 855.135 -142.29 -54.6983 -49.4808 -821.817 280.106
7320 2 -11.7183 -65.643 -9.13338 -558.673 -349.314 -249.428 74.8266 -31.7629 -272.826 -251.305 563.778
4824 2 -17.5404 -65.5451 -8.98624 -609.053 -284.685 -223.829 -46.9284 -148.751 -297.936 -256.416 684.063
7406 1 -11.9411 -66.0044 -7.59567 376.687 1204.66 1201.08 -154.406 -19.9637 -3.52285 -816.961 869.108
7414 2 -13.4859 -66.1313 -7.3743 -59.8851 -343.182 -745.514 38.1291 -145.955 21.7955 -264.363 652.535
4910 1 -17.3306 -66.0071 -7.45479 523.082 1125.66 959.701 -40.4374 202.497 39.2887 -805.264 650.53
7411 2 -14.3931 -65.9223 -12.0431 -516.979 -95.4044 -442.098 -20.4811 30.9596 432.525 -263.407 846.836
4920 2 -17.4457 -62.9075 -8.93685 -517.11 -220.95 -175.79 69.8756 1.838 331.759 -256.27 669.309
7405 1 -14.3861 -64.4176 -11.3662 746.277 905.32 933.531 -98.5215 -168.759 -178.632 -811.886 490.779
4914 2 -15.6751 -64.3011 -10.3579 -65.3772 -573.053 -505.781 -16.7111 -184.086 90.1851 -258.537 595.826
7413 2 -12.9514 -64.1309 -10.8533 -265.63 -571.74 -534.883 15.1514 21.5674 125.5 -262.867 364.849
4911 1 -17.2127 -64.2225 -9.90395 890.23 1276.64 702.85 -5.2189 15.3294 0.345524 -810.584 507.555
7407 1 -11.5546 -64.236 -9.99256 921.475 1225.23 1046.23 -5.67605 19.8263 -153.087 -814.956 376.189
5015 2 -14.6795 -63.379 -12.5363 -615.659 -281.897 -600.215 62.3456 9.93963 24.7743 -255.538 346.813
5006 1 -11.6444 -61.9275 -7.70495 962.153 894.842 1027.24 -78.5699 -26.2571 -149.267 -844.369 317.14
2510 1 -17.2531 -61.9517 -7.62154 1093.82 1069.36 1019.82 -63.3813 224.044 -126.128 -839.75 463.28
7416 2 -11.4451 -63.113 -8.8335 -489.806 -506.103 -428.77 41.2325 38.4767 387.974 -241.784 682.715
5009 2 -15.7437 -61.8146 -7.03141 -234.801 -648.846 -463.006 107.821 126.267 123.067 -239.646 507.116
5014 2 -13.1207 -62.0841 -7.09941 -394.662 -450.589 -543.449 181.941 -114.52 52.89 -250.514 404.955
7409 2 -16.1618 -67.0787 -7.06862 148.327 -865.297 -404.201 68.1776 175.416 -22.7253 -229.877 938.334
4916 2 -16.1224 -64.976 -6.99153 167.047 -924.77 -609.445 -60.9403 -28.0714 -16.6672 -229.149 980.589
7435 2 -14.9874 -64.7123 1.2324 -644.872 -547.739 -504.933 75.1891 118.974 100.704 -223.988 324.459
4918 2 -18.6512 -66.1201 -6.64337 -529.089 -468.097 -495.607 22.1073 -184.286 20.3366 -269.198 327.704
2420 2 -21.2369 -65.1934 -6.62199 -89.474 -742.365 -190.415 55.9618 190.588 121.35 -225.992 730.135
2428 1 -25.1098 -66.2932 -6.6582 1036.57 1077.35 1009.94 14.1578 48.703 47.4446 -817.06 133.895
2513 2 -20.9388 -62.2569 -6.71315 -567.521 -797.178 -305.118 -64.7179 33.1813 186.571 -238.427 549.686
2518 2 -18.3206 -62.3515 -6.51634 -432.429 -562.032 -414.627 94.7771 -239.654 71.709 -249.332 483.837
4924 1 -20.0501 -66.2186 -5.90626 1022.35 1162.56 333.88 -221.04 64.1309 -219.85 -813.779 945.566
28 1 -24.7693 -62.267 -6.11243 1147.06 1151.84 833.306 68.2523 -3.8506 30.5953 -842.988 341.747
2431 2 -24.8339 -66.0839 -5.0918 -804.533 -294.666 -305.941 89.3479 17.8297 253.606 -240.387 687.163
4927 2 -19.9878 -65.9518 -4.41165 -779.801 -366.383 -517.618 35.2068 -109.402 266.045 -244.54 619.053
2432 2 -23.2516 -65.1446 -0.7077 -644.022 -459.806 -500.55 74.583 -199.151 -56.092 -264.135 416.173
2433 2 -23.5354 -64.6759 -3.17218 -498.557 -653.921 -390.077 -54.7608 99.4994 67.6014 -238.238 324.293
2425 1 -24.8732 -64.7887 -4.11964 1312.34 1260.6 631.354 127.011 158.451 -257.731 -841.207 868.434
2430 2 -21.1059 -64.7374 -2.38975 -452.795 -623.16 -305.746 116.326 -400.307 -130.608 -245.133 805.114
4921 1 -19.8279 -64.6686 -3.3704 1077.93 1284.72 766.989 80.3492 131.053 -303.604 -839.764 742.407
2427 1 -22.6009 -64.3645 -1.93754 1152.25 880.599 598.028 -14.7044 152.844 174.336 -841.088 626.351
2531 2 -19.7777 -63.3688 -4.44461 -619.89 12.4747 144.619 45.3982 -237.177 -332.977 -243.472 1004.23
2436 2 -22.5637 -62.7698 -1.75588 -665.243 -297.221 -585.743 121.859 -67.4834 -152.914 -249.869 490.777
2524 1 -19.697 -62.1919 -5.68282 1270.19 1106.78 923.161 -38.6758 255.358 -358.558 -843.726 822.33
35 2 -24.913 -63.4366 -5.03603 -705.159 -164.294 -371.862 -47.2637 -148.051 -110.451 -251.528 576.551
4929 2 -18.4359 -64.7242 -2.67353 -419.725 -669.634 -433.929 -73.1759 48.624 -11.4901 -241.492 287.506
2530 2 -18.3757 -60.6827 -0.980882 -387.732 -600.328 -598.796 27.6024 -74.0072 2.01527 -251.033 252.195
2536 1 -19.758 -60.8959 -0.25197 860.564 1082.92 969.564 4.11563 125.876 52.8106 -831.112 305.023
26 1 -22.4744 -61.1708 -1.68188 948.473 746.485 835.38 -127.897 169.447 241.39 -830.279 583.749
2590 2 -18.4602 -61.5948 -20.8598 87.6486 -496.989 -539.671 11.8549 -136.354 57.0811 -275.699 659.204
7444 1 -13.7952 -66.5539 6.4281 942.359 1089.71 1152.26 -37.4396 155.864 -289.135 -854.853 602.267
5033 2 -16.1304 -61.778 6.42406 -476.809 -583.75 -410.907 137.776 212.541 64.8019 -232.167 477.382
9905 2 -10.9663 -67.0845 -6.77808 38.0049 -651.743 -334.333 122.91 401.468 -56.4288 -216.865 946.557
7412 2 -11.0831 -64.9572 -6.67226 11.807 -1081.34 -643.822 47.6617 117.98 167.394 -224.758 1020.17
7420 1 -14.9153 -66.083 -6.60773 849.277 1142.93 1140.64 -153.714 60.2998 -84.2044 -806.64 434.316
9917 2 -11.3415 -67.0441 1.10782 -45.8784 -434.282 -567.091 -88.2923 364.918 -108.77 -205.651 823.682
5020 1 -14.3856 -61.8623 -6.14408 897.153 777.652 1233.48 -208.356 131.116 -401.361 -848.628 912.506
7332 2 -12.0184 -67.3916 -1.43042 -605.867 -309.339 -595.484 111.764 59.7606 -275.448 -122.895 600.633
7422 2 -10.7754 -64.2477 -2.54581 -394.146 -676.668 -532.729 36.2341 -226.522 117.958 -220.636 509.401
7418 1 -12.4041 -66.6974 -0.171273 1456.51 879.116 1133.59 -64.1538 128.089 189.999 -931.593 648.902
7423 2 -14.5881 -65.7177 -5.08426 -684.617 -418.164 -385.866 229.567 -60.2292 269.555 -242.959 683.822
7424 2 -12.2886 -65.1112 -0.519778 -676.135 -718.23 -287.851 90.4498 76.9315 -381.028 -204.882 804.193
4928 2 -16.3609 -65.4742 -0.832238 -373.905 -295.519 -179.853 -188.207 219.436 -339.554 -233.366 790.697
7425 2 -13.2824 -64.5382 -3.05954 -555.17 -837.625 -179.525 65.517 117.713 -79.0343 -226.658 632.597
4926 2 -15.8805 -64.4135 -3.18803 -374.892 -655.719 -236.36 120.703 -341.841 70.5274 -227.517 739.022
4923 1 -16.9661 -64.4475 -2.01395 1211.25 1072.38 1068.06 -182.777 163.266 -106.747 -859.866 484.021
7419 1 -12.2719 -64.2295 -1.88319 1090.3 1257.96 1095.26 -366.449 1.12244 68.2269 -891.942 666.429
7417 1 -14.4924 -64.4379 -4.14537 1354.08 1263.83 659.978 -278.623 110.708 -304.491 -862.138 987.465
4932 2 -17.1573 -62.9559 -1.42881 -697.345 -336.77 -689.221 -81.0701 -87.4107 -45.0711 -237.147 419.386
5027 2 -14.4453 -63.0897 -5.00208 -569.448 -196.808 -302.352 46.9898 -48.6205 -145.799 -241.903 433.772
7428 2 -12.6626 -62.7026 -1.42645 -557.035 -365.806 -612.556 84.0356 -143.255 19.8189 -221.906 366.331
2522 1 -16.9662 -61.3885 -1.30154 945.323 862.671 1018.68 -107.259 85.1662 7.31752 -849.106 273.33
5018 1 -12.1705 -61.216 -1.07802 756.475 1401.48 902.93 -179.569 -18.9538 -202.833 -875.221 751.167
7517 2 -10.7843 -61.4257 -0.386477 -640.676 -764.572 -553.334 46.7829 -45.2312 84.9057 -235.763 261.019
7344 2 -10.6868 -66.8462 3.57638 -874.684 -673.653 -877.949 104.659 54.0944 -107.886 -212.395 342.984
2543 2 -19.9433 -62.4797 0.15322 -657.498 -327.431 -473.661 115.632 -129.945 -181.387 -244.697 521.09
40 1 -24.8639 -61.1654 0.281806 1139.86 978.914 797.537 30.0565 18.9324 -12.9073 -841.457 303.77
2426 1 -23.3749 -66.0296 0.558371 823.438 954.856 862.447 55.7753 304.377 94.2969 -777.794 572.373
2434 2 -24.7022 -66.9336 0.741613 -48.4921 -481.21 -411.54 -61.8748 -408.709 7.46921 -243.889 821.422
47 2 -24.3075 -62.5412 0.963117 -611.384 -437.228 -616.64 -88.3509 120.568 -123.748 -248.574 379.792
2459 2 -25.1954 -66.4786 5.72192 -236.019 -608.031 -392.164 91.0722 115.135 81.833 -232.245 435.232
4930 2 -19.1749 -67.0077 2.09549 67.7446 -479.552 -543.981 -106.443 360.701 -14.3419 -236.456 873.996
4948 1 -18.7557 -66.3227 6.82376 1071.42 1078.74 866.958 237.526 213.769 -323.805 -839.969 815.016
4925 2 -21.9719 -66.4569 1.0772 -227.684 -461.67 -844.824 -221.801 -4.54053 90.3805 -262.943 680.709
4943 2 -21.2244 -66.4221 3.42352 -724.208 -511.467 -344.765 -25.0297 -39.5783 -35.9617 -231.025 344.922
4937 2 -19.9616 -66.4847 5.78108 -752.96 -610.049 -518.754 -31.4591 120.394 -0.320048 -238.547 297.084
4936 1 -20.6379 -66.2746 1.92154 1104.46 985.895 1061.05 69.9726 -178.581 -264.981 -831.318 576.023
2446 2 -22.4973 -66.2103 5.71124 -571.096 -661.048 -623.934 153.045 -53.1623 -60.3366 -227.822 309.514
2442 2 -20.537 -62.5227 2.80237 -712.216 -674.162 -396.236 34.9198 -104.286 -61.1448 -229.965 369.822
2438 1 -21.1427 -65.9039 4.9707 862.521 1156.56 810.79 268.254 -121.032 138.838 -857.39 649.614
2445 2 -22.8989 -63.2714 3.17697 -379.925 -509.846 -631.569 -193.004 316.492 70.7079 -246.599 689.03
4933 1 -19.7181 -63.1714 1.56517 1236.01 912.353 1036.13 -52.8001 28.5729 450.214 -841.491 836.006
2452 1 -23.8896 -65.625 6.20893 878.273 1419.15 948.12 9.69197 242.926 -153.12 -885.437 712.255
2443 2 -24.3244 -64.9723 1.77264 -66.0825 -358.85 -590.341 -11.7829 -466.091 189.128 -291.471 983.118
4939 2 -20.222 -64.7067 1.55296 -555.751 -134.851 -592.382 160.209 -89.6536 -71.6363 -247.602 557.158
2441 2 -23.9976 -64.1901 5.59866 -415.341 -479.309 -294.247 12.5179 -87.5407 112.03 -161.048 295.997
2444 2 -20.8618 -64.2936 4.70025 -610.798 -293.938 -401.436 -28.4051 36.4177 -107.588 -241.02 344.992
2437 1 -24.249 -63.3732 2.29279 954.632 626.279 1279.15 -82.8216 328.468 -17.6543 -817.171 815.398
2439 1 -21.5309 -63.0379 3.96366 1368.99 949.348 830.448 66.2238 -26.3953 -309.143 -863.326 736.265
2448 2 -21.7458 -61.7526 4.93097 -806.452 -496.885 -675.002 -119.963 105.094 133.45 -228.861 449.614
7434 2 -10.7301 -62.9622 2.87934 -281.087 -599.974 -680.706 25.3838 -125.685 8.37978 -228.835 428.351
46 2 -23.4663 -61.3905 6.91301 -546.85 -678.461 -501.68 42.2761 -149.418 -223.474 -229.848 497.46
4941 2 -18.1264 -62.9672 1.96827 -86.3373 -654.703 -463.863 124.026 290.205 -34.994 -230.472 743.956
4836 2 -17.6945 -65.1006 3.0423 -622.456 -339.595 -802.371 96.8532 -18.8101 154.029 -231.564 513.467
7430 1 -11.0004 -66.3553 5.02581 929.853 978.388 1244.7 -259.471 63.0599 112.49 -878.698 581.44
2534 1 -17.6079 -61.7855 5.79777 1373.43 1082.89 739.706 -222.13 33.8307 -36.3434 -866.338 676.25
7426 2 -14.0577 -66.8038 0.0488753 12.3984 -560.55 -630.717 -127.275 138.564 -111.661 -209.13 719.025
7432 1 -15.4664 -66.0611 0.396459 1393.31 1163.71 1122.99 -111.08 -16.8984 10.6587 -875.165 319.276
7308 2 -10.5023 -68.2676 -13.177 -596.361 -27.7009 -651.037 270.559 197.561 419.451 -262.172 1105.43
4944 2 -17.7756 -62.7759 4.54572 -870.826 -393.924 -475.278 171.622 47.4468 209.704 -237.341 649.846
7438 2 -12.3809 -66.7027 5.71098 -125.99 -606.402 -774.556 4.41772 -70.4149 1.64727 -236.379 595.647
4935 1 -17.292 -63.5407 3.27775 923.693 913.061 1197.01 -78.7569 171.201 -235.749 -863.604 592.445
4938 2 -15.7156 -63.4097 3.30861 -545.12 -440.584 -721.212 31.8128 -8.58147 -52.9901 -229.004 268.375
7431 1 -11.814 -63.5276 3.87726 781.603 868.529 1205.55 18.395 -69.9294 -21.8172 -888.761 409.332
7436 2 -11.2172 -64.7318 4.68137 -671.691 -592.175 -789.226 126.709 81.1144 -188.385 -210.229 451.502
4942 2 -17.501 -65.5928 6.02868 -261.259 -604.246 -454.694 -175.722 -235.996 281.105 -216.94 765.172
7421 2 -16.4619 -66.7712 1.51749 -284.849 -516.695 -210.842 78.8485 -376.758 -117.133 -228.035 749.693
5039 2 -14.165 -62.3046 1.5209 -579.337 -617.112 -642.73 71.644 17.0016 -61.5402 -221.366 175.152
4934 1 -16.7685 -67.0302 5.60191 797.025 1160.97 1323.8 164.275 111.488 31.6378 -839.97 582.649
7440 2 -12.1731 -62.4483 4.99636 -675.714 -767.477 -513.462 23.7984 97.2052 86.2149 -215.075 319.342
5030 1 -12.0589 -61.651 6.38392 984.843 1281.62 1079.17 92.4468 24.5265 -244.757 -888.446 525.491
4940 2 -17.2575 -67.3965 4.06382 -635.359 -462.325 85.7295 6.44016 281.292 -91.8151 -233.082 829.413
4955 2 -17.7057 -67.6194 6.77778 -216.642 -537.176 -506.665 -280.491 -267.63 173.7 -214.576 797.064
7437 2 -13.186 -63.9892 3.16976 -412.672 -572.229 -789.179 187.05 98.0401 38.6749 -227.179 495.406
7433 2 -15.1754 -67.0535 5.74713 38.5988 -441.796 -696.585 50.2271 127.786 -80.0412 -244.274 702.76
5032 1 -14.6035 -60.9797 0.768306 981.735 1060.22 727.885 -184.105 -76.4845 -127.561 -881.842 508.499
20 2 -21.9569 -60.9334 -8.5438 -629.833 -158.065 -501.596 53.7907 -237.9 -113.686 -240.575 629.09
5081 2 -15.7119 -60.9359 -20.7176 -103.319 -552.862 -842.71 63.88 -63.8216 -71.9435 -278.708 675.566
4988 2 -15.4713 -64.6108 -20.8355 -252.614 -526.515 99.6208 47.3789 529.689 -170.279 -269.728 1109.5
4951 2 -19.2531 -65.6166 8.12516 -766.533 -228.804 -476.726 -124.016 -135.092 205.441 -238.476 666.941
2456 2 -21.3958 -65.5768 12.7011 -801.162 -345.415 -343.113 85.4369 266.27 -251.455 -223.58 795.642
2457 2 -22.8214 -64.9904 10.3639 -253.919 -719.324 -245.309 -47.9752 216.883 -154.905 -218.78 663.844
2454 2 -20.2285 -64.8977 10.4803 -675.727 -649.611 -537.596 76.5273 -195.212 171.492 -225.209 486.082
2451 1 -21.5547 -64.6685 11.3151 1234.5 1090.69 847.547 -199.154 260.272 -172.328 -881.165 725.305
2449 1 -24.0187 -64.6892 9.22665 1394.92 860.757 881.75 -62.2592 194.69 -47.0311 -881.736 637.6
4945 1 -19.3606 -64.4389 9.24447 1312.23 1006.82 801.851 -168.056 278.572 -131.263 -868.494 753.07
2460 2 -21.9267 -63.1787 11.7121 -600.626 -472.495 -545.08 -227.344 -253.841 60.4593 -224.479 609.684
59 2 -24.1114 -63.185 8.83388 -707.159 -580.48 -550.082 -63.0899 40.1177 -90.5954 -230.289 249.428
2555 2 -20.1433 -63.1066 8.72375 -583.809 -286.734 -579.93 -72.1811 81.6843 28.6291 -228.799 353.867
2549 2 -20.7032 -61.8213 13.3664 -605.021 -560.286 -695.256 -23.1661 -55.2964 -47.3581 -231.855 178.022
58 2 -23.3709 -61.7906 13.6707 -497.298 -667.382 -481.578 52.6357 -116.061 92.0949 -239.794 325.601
50 1 -22.1194 -61.8458 12.6685 946.315 1017.51 1173.41 -115.476 -60.8 25.3037 -868.796 305.754
52 1 -24.386 -61.7335 8.183 1152.21 926.696 934.971 -96.765 -40.8651 -42.2489 -869.941 295.831
2548 1 -19.767 -61.6756 8.07007 1007.18 941.492 933.169 54.013 -16.4509 -75.287 -870.731 177.482
2453 2 -25.1042 -66.0567 13.7921 -136.323 -323.035 -639.263 163.343 264.375 -55.8229 -247.583 702.125
2560 1 -19.2866 -62.0516 14.039 1077.73 1039.95 986.7 -111.485 -74.0631 -41.9581 -882.593 255.536
2554 2 -18.0937 -61.8772 12.949 -327.215 -575.167 -353.622 99.5245 -270.813 20.6621 -223.245 553.756
2455 2 -23.7548 -65.4569 7.87475 -625.196 -716.019 -106.749 92.1741 47.0615 126.736 -217.741 635.957
5086 2 -13.3335 -61.0688 34.0428 -148.471 -446.194 -711.046 0.859272 -163.581 71.6518 -285.793 577.337
2537 2 -21.0106 -61.0027 7.35955 -645.185 -639.223 -471.689 -11.8336 65.2727 70.3871 -228.213 239.096
4953 2 -17.8116 -64.0966 9.54488 -336.331 -532.811 -631.472 99.7947 -87.3131 -32.4996 -230.9 351.624
7451 2 -13.7592 -66.8016 8.03395 -604.293 -755.015 -472.547 -17.5076 -60.8699 390.06 -202.098 726.917
7448 2 -12.2545 -65.6416 11.711 -535.299 -350.469 -369.076 -4.73812 156.44 125.195 -113.943 389.331
7441 1 -14.0397 -65.3287 8.55245 997.932 850.032 1051.62 121.623 29.0648 -712.563 -885.952 1266.03
7449 2 -12.8305 -64.6789 9.29975 -515.979 -606.932 -575.173 9.07161 202.03 121.599 -201.685 416.469
4950 2 -15.3298 -64.984 9.37295 -702.719 -619.946 -524.883 -170.263 -109.503 279.604 -219.026 617.442
7443 1 -11.8327 -64.6328 10.6494 1172.26 1185.71 1276.55 -138.542 -65.7263 -398.186 -957.024 745.555
4956 2 -16.2785 -63.0613 11.2527 -684.396 -584.546 -302.053 -48.0713 -81.2907 225.314 -222.535 545.01
4947 1 -16.2601 -63.7261 9.74912 1138.98 1015.38 1071.56 17.1632 58.9509 -159.646 -879.593 315.056
7452 2 -11.9415 -63.1156 11.237 -619.092 -390.673 -376.871 -33.119 17.5408 385.537 -197.3 711.089
5051 2 -15.5519 -62.6717 8.78126 -415.635 -763.141 -552.572 135.708 -161.423 -3.89374 -227.198 474.756
2546 1 -16.6108 -61.8902 12.2393 1236.33 1228.81 765.997 -227.314 -156.001 -185.877 -888.052 741.22
5042 1 -11.8567 -61.8975 12.364 1138.3 1260.32 983.972 3.7311 -93.9338 122.277 -903.58 359.03
5050 2 -13.0295 -62.0161 13.457 -456.031 -721.598 -166.563 16.8383 -194.383 13.8235 -219.627 588.191
5045 2 -15.5623 -61.8385 13.4388 -639.503 -775.427 -423.817 155.706 210.192 -12.5095 -216.5 547.775
5044 1 -15.0544 -61.6743 7.61946 1054.05 956.087 1300.83 -175.842 -56.8877 -33.683 -881.551 447.825
5038 2 -13.5291 -61.6924 7.03775 -135.327 -642.866 -678.587 221.901 -135.67 -110.187 -220.208 718.585
7577 2 -10.7522 -61.1071 34.417 -473.013 -604.927 -731.861 21.4676 -61.5584 -9.61368 -291.672 251.567
7529 2 -10.8991 -62.1038 7.36244 -305.333 -593.523 -464.177 1.2978 170.039 158.632 -222.111 474.073
29910 2 -25.5397 -64.9475 9.7833 -159.542 -733.754 -500.028 -88.871 -96.7848 86.8802 -226.439 569.719
7447 2 -14.0382 -64.9838 6.92212 -539.191 -497.308 -344.392 26.7747 -191.874 447.577 -201.227 863.2
64 1 -24.7624 -61.7689 14.4066 1072.49 1262.99 614.718 -155.004 -41.974 -27.0342 -864.295 642.344
2450 1 -21.4717 -65.8141 14.2593 650.008 946.403 1117.76 -296.848 -73.1951 -127.317 -865.349 705.026
2467 2 -22.739 -64.7151 14.5713 -115.314 -970.514 -710.897 93.675 29.7195 45.5254 -199.214 782.264
2458 2 -22.6305 -66.8129 14.6702 -245.355 -1031.4 -775.341 -10.6109 -160.094 104.365 -207.164 769.455
2464 1 -23.8706 -65.8555 14.8557 788.113 925.447 1333.74 -14.0946 183.255 -201.688 -854.706 681.918
2468 2 -22.2654 -65.7596 17.9178 -472.534 -274.037 -214.773 46.5489 67.5432 90.9871 -134.6 315.752
2567 2 -19.212 -63.3806 14.8888 -654.217 -625.117 -358.769 50.0222 70.9641 -182.116 -222.548 449.056
4949 2 -20.2589 -65.6594 15.1769 -667.854 -447.163 -508.871 86.5799 299.211 228.31 -225.386 697.38
2471 2 -24.6493 -65.3079 16.1454 -754.388 -343.006 -534.989 -84.0061 -196.38 490.972 -225.663 993.55
4957 1 -19.4666 -64.4971 16.0648 1281.39 1172.81 1066.69 8.60875 -143.284 -84.5581 -886.269 343.274
2466 2 -20.5851 -63.9577 17.068 -639.16 -702.4 -326.897 -79.5147 -162.701 105.197 -217.641 502.829
2463 1 -21.8658 -64.2418 18.0277 1148.75 1522.64 825.329 97.9172 -81.01 -333.731 -907.28 864.809
2469 2 -23.2143 -63.468 17.4413 -340.003 -772.976 -531.132 27.7553 131.77 118.881 -219.352 487.895
2472 2 -21.7699 -63.5944 19.5077 -631.397 -536.687 -247.029 -8.88321 -48.4369 266.369 -224.479 583.471
2461 1 -24.6369 -63.8433 16.8351 1086.53 1228.26 839.14 46.9762 182.781 -370.537 -862.992 796.927
62 1 -22.1231 -62.2674 20.3612 959.225 1409.29 645.996 -9.06639 -207.517 104.012 -852.989 776.874
71 2 -24.973 -62.8769 15.5498 -726.757 -649.169 -261.129 76.3839 -49.0182 -74.4351 -228.881 477.531
4965 2 -18.1498 -64.6496 16.9945 -348.629 -535.684 -268.599 142.993 424.332 133.027 -214.016 843.188
68 2 -22.2578 -61.0806 19.3214 -509.211 -649.115 -333.737 60.2208 -107.117 -181.691 -243.835 468.242
5056 1 -14.3345 -61.9393 14.4564 1187.39 1489.24 803.418 -173.475 -274.206 335.816 -886.564 1004.3
4968 2 -17.4837 -63.2867 19.2138 -648.212 -886.838 -281.709 85.6453 33.6608 143.745 -215.748 605.076
2558 1 -17.3086 -62.3355 20.4544 858.33 1442.3 831.206 -67.5191 30.9993 155.378 -873.307 668.265
4964 2 -16.8882 -65.7275 19.1505 -462.57 -443.656 -320.835 25.8397 51.6544 131.942 -126.318 282.842
4959 1 -17.0743 -64.5261 18.25 1222.48 1126.64 1036.08 -45.5316 -3.07463 -277.903 -927.322 513.814
7461 2 -13.0313 -64.8641 17.2002 113.116 -764.732 -485.715 -72.3765 335.239 -61.6884 -205.553 983.778
7460 2 -11.4499 -63.634 19.2454 -648.536 -283.372 -196.846 94.9762 176.241 231.827 -233.95 673.724
7455 1 -11.8598 -63.8572 17.6744 797.002 1235.57 1120.51 -40.2068 17.1435 -85.5977 -844.986 427.59
7453 1 -14.291 -63.7711 16.8499 854.498 1355.02 1028.83 -113.059 -214.838 91.8507 -862.976 629.107
4962 2 -15.6081 -63.9842 17.6526 -254.535 -559.226 -621.635 183.937 1.55576 98.5051 -219.974 496.349
7464 2 -13.0791 -62.7145 17.3754 140.2 -820.215 -557.34 -10.9714 135.06 -48.9671 -210.846 895.159
5063 2 -14.4782 -63.2285 15.3872 -701.717 -524.938 -577.522 25.3905 11.106 -266.525 -224.372 490.032
5054 1 -11.6641 -62.3397 20.2229 1028.09 1326.71 654.806 -66.1514 51.2263 108.537 -850.073 629.544
5062 2 -13.1515 -62.4297 20.8305 -367.165 -838.735 -580.585 -2.83123 -83.104 -38.9038 -233.609 438.825
5057 2 -15.842 -62.3636 21.0968 -280.595 -806.817 -468.68 134.567 61.4945 -65.1291 -238.168 540.098
7458 2 -10.4862 -63.8055 16.9295 -459.589 -519.677 -823.511 -57.7455 -41.8781 26.5764 -244.936 362.721
7446 2 -10.3064 -64.8747 10.1443 -388.956 -728.497 -606.23 -84.8076 -39.2522 220.819 -198.011 511.082
70 2 -23.468 -62.5316 21.2977 -404.278 -721.802 -72.6798 54.669 -180.281 -171.767 -247.123 714.879
2561 2 -21.04 -61.9026 21.477 -656.664 -785.898 -487.536 -29.7146 74.3163 -1.94535 -238.533 293.925
2566 2 -18.4552 -62.2845 21.6002 -339.129 -794.829 -257.055 -65.7472 -155.478 -5.20765 -240.417 580.835
2478 2 -21.4643 -64.0148 26.017 44.2868 -489.054 -194.359 47.2819 -388.368 -140.342 -279.493 855.809
2475 1 -22.8263 -63.8998 26.8589 667.225 748.756 1089.07 -79.8485 -280.557 -19.4232 -732.999 637.652
4969 1 -20.1349 -63.3409 25.1671 933.282 1231.44 1059.93 40.3892 78.7943 147.545 -778.858 394.978
2481 2 -24.0989 -63.9273 25.9702 -251.07 -466.634 -422.281 28.0938 442.682 -47.8038 -289.783 797.495