ITEM: TIMESTEP
40000
ITEM: NUMBER OF ATOMS
29952
ITEM: BOX BOUNDS pp pp pp
-2.5615833775063237e+01 3.5601128117061187e+01
-6.2799307128122912e+01 7.2784601462321646e+01
-2.1035324467156940e+01 3.4903177627851115e+01
ITEM: ATOMS id type x y z v_StrAtomXX v_StrAtomYY v_StrAtomZZ v_StrAtomXY v_StrAtomXZ v_StrAtomYZ c_PEAtom v_VMS
1 1 -24.5605 -59.1071 -19.4712 776.522 916.09 1017.29 2.4322 -65.0841 -131.921 -838.747 329.816
2 1 -21.8812 -61.7266 -15.9172 1005.14 1207.63 969.36 -70.23 -62.4388 -94.3857 -841.209 320.54
3 1 -22.0469 -59.0185 -17.696 755.035 813.365 1078.94 106.377 -116.179 -1.48965 -846.261 404.81
6 2 -20.5714 -58.9632 -18.3271 -120.275 -538.814 -506.948 -20.9206 -121.78 -31.6291 -245.388 460.063
7 2 -24.7691 -60.2372 -20.606 -601.416 -745.304 -521.691 30.4982 19.7276 47.3572 -240.192 221.85
8 2 -22.158 -60.3032 -16.745 -485.928 -238.334 -429.758 -76.5347 51.7926 -189.309 -242.847 428.584
9 2 -23.1688 -59.1582 -18.8295 -677.355 -527.501 -685.369 -7.20779 -28.8178 23.1355 -249.423 167.255
10 2 -22.9374 -61.7943 -14.6851 -186.147 -599.05 -346.53 -10.8062 -282.889 -18.1068 -241.503 609.427
12 2 -22.3085 -57.6916 -16.8882 -545.652 -326.329 -573.817 -55.9893 33.9433 7.6708 -243.656 260.98
98 1 -22.2207 -56.1329 -16.3505 947.196 1103.76 717.259 73.8702 59.6098 56.2285 -843.754 387.169
103 2 -24.4369 -54.9869 -20.4791 -494.326 -25.0892 -459.537 -61.4787 -73.8015 122.24 -251.089 526.855
104 2 -22.3703 -54.9946 -17.4273 -563.14 -188.766 -493.857 100.09 -102.581 -210.203 -245.513 559.64
106 2 -23.2521 -55.9881 -15.1898 -477.89 -774.282 -645.783 2.24654 70.8687 74.2931 -247.303 312.914
107 2 -24.7733 -57.7466 -20.3907 -585.318 -375.389 -502.126 -87.2452 54.5902 -131.465 -242.817 342.274
2497 1 -18.965 -58.984 -18.771 1067.9 722.974 687.705 -14.5734 -163.974 109.844 -830.402 499.877
2501 2 -20.3843 -61.7883 -15.3924 -365.961 -484.433 -524.337 43.5584 119.342 71.3844 -249.552 289.935
2503 2 -18.7575 -60.1376 -19.821 -678.877 -488.086 -610.283 -39.9025 -7.40576 -83.0933 -254.925 231.676
2597 2 -20.6733 -55.985 -15.8422 -284.929 -661.413 -514.797 -35.439 72.9515 -15.5656 -235.503 358.467
2599 2 -18.7305 -55.1012 -20.0896 -582.234 -455.981 -608.57 25.7821 -1.67422 47.3281 -255.544 169.354
2603 2 -18.5972 -57.5867 -19.3463 -578.68 -622.909 -496.483 -51.9037 76.9431 -32.9822 -252.292 203.603
2596 1 -18.9377 -56.5884 -20.562 1138.16 640.942 1017.76 -25.8784 -60.1425 118.076 -824.931 506.501
2608 1 -19.5607 -56.169 -14.6828 980.722 948.179 897.729 -8.75876 -33.4981 -43.289 -843.894 120.267
2512 1 -19.3181 -61.509 -14.2052 746.583 666.431 1170.41 110.455 30.7951 -27.7197 -841.862 511.636
2500 1 -19.0043 -61.2634 -20.8822 1073.59 958.497 705.662 -2.11176 -232.924 -81.3541 -834.773 537.495
2681 2 -20.4505 -56.7686 -21.0949 -381.799 -553.442 -484.216 -43.1911 162.502 -71.8902 -250.064 350.276
2602 2 -18.0725 -56.0104 -15.3061 -367.796 -500.747 -499.375 -13.9117 -171.774 56.5346 -242.577 340.857
5 2 -25.4917 -61.8473 -14.122 -320.277 -530.964 -496.302 27.1983 163 46.2715 -250.93 355.86
2505 2 -17.975 -59.2523 -17.5668 -278.217 -622.462 -556.952 -23.9371 103.195 11.6489 -252.699 366.495
2506 2 -17.8386 -61.4782 -14.7279 -543.75 -484.941 -618.514 -155.694 -87.4558 75.2107 -246.108 355.08
2498 1 -16.3326 -61.6501 -15.3107 788.228 914.898 998.628 53.7467 -215.805 114.636 -833.907 470.604
2499 1 -16.4487 -59.0842 -17.0566 1038.82 974.403 935.959 -9.6306 81.8012 16.8081 -827.669 171.185
2502 2 -15.4209 -59.1753 -18.2769 -417.175 -671.333 -669.178 73.4188 -44.4095 -20.198 -249.625 295.575
2504 2 -16.0069 -60.2334 -15.9925 -531.193 -285.44 -539.164 -134.38 134.689 -143.531 -247.364 482.512
2508 2 -16.2679 -57.5825 -16.4597 -506.874 -332.272 -624.547 88.3521 0.311728 8.58266 -253.148 297.521
2594 1 -16.5493 -56.1826 -15.8258 968.671 725.65 1204.88 -84.4068 51.8884 -77.5788 -843.273 468.789
2600 2 -16.3143 -54.91 -16.7676 -631.308 -104.242 -491.623 -61.2562 50.5696 -155.762 -245.371 561.606
4993 1 -14.3887 -58.94 -19.4361 933.326 1033.47 748.953 -121.212 93.4772 12.6251 -835.936 365.041
4994 1 -11.8745 -61.6602 -15.9525 987.869 1134.63 846.191 -16.8372 139.45 -0.124921 -832.236 348.706
4995 1 -11.9257 -58.9052 -17.5499 791.446 850.807 1153.42 95.1433 45.5283 51.1327 -832.423 392.789
4999 2 -14.6104 -60.0247 -20.6027 -576.484 -216.738 -377.768 -30.0698 -31.1336 176.448 -249.362 443.215
5000 2 -12.1141 -60.153 -16.5394 -590.048 -89.4468 -517.229 -104.148 15.3383 -133.13 -248.418 553.053
5001 2 -12.9079 -59.1936 -18.8215 -282.8 -453.066 -402.275 -28.4844 199.812 15.3595 -250.811 381.888
5002 2 -12.8574 -61.9068 -14.7183 -468.02 -629.014 -413.36 57.2826 -124.389 -55.5765 -247.189 321.302
5004 2 -12.1574 -57.4512 -16.9173 -608.508 -153.276 -443.627 161.541 95.3149 125.545 -252.638 558.738
5090 1 -11.946 -55.8904 -16.4747 1149.66 1033.85 928.454 0.66684 -17.2672 122.756 -832.26 287.802
5093 2 -15.5631 -56.0482 -14.489 -143.156 -595.262 -237.923 121.302 251.574 96.6255 -236.469 657.69
5095 2 -14.6456 -54.9136 -20.6231 -455.578 -382.023 -564.834 57.9412 48.8826 177.928 -251.928 370.944
5096 2 -12.0763 -54.8583 -17.6902 -629.49 -105.032 -474.226 13.6448 30.6804 -190.174 -244.343 574.12
5098 2 -13.0764 -55.5598 -15.3431 -265.764 -575.603 -316.663 -7.73134 -201.731 -98.5872 -248.334 483.988
5099 2 -14.5878 -57.4786 -20.0842 -490.328 -363.926 -376.155 -27.9143 49.4028 -244.558 -247.184 451.295
4908 2 -16.2195 -62.7994 -16.4397 -516.202 -315.318 -382.027 -13.0868 -18.8375 136.075 -256.708 297.542
4997 2 -15.4044 -61.8565 -14.0671 -520.061 -627.242 -486.557 -22.9284 84.0911 23.376 -249.079 201.573
7404 2 -12.1811 -62.8039 -17.0767 -522.409 -418.754 -398.994 60.7781 47.0874 107.82 -254.159 256.5
7589 2 -10.4646 -55.7055 -15.8121 -221.113 -533.659 -439.173 16.3737 160.524 -46.7139 -250.577 402.164
5092 1 -14.3472 -56.352 -21.2528 790.733 838.572 1311.6 11.338 8.07871 -17.0045 -831.307 500.117
97 1 -24.5713 -53.461 -19.8597 955.131 1013.25 1085.38 -146.91 -39.2975 166.718 -828.746 406.864
99 1 -21.9814 -53.5442 -18.1806 857.844 1075.77 1210.87 3.92192 9.13046 -125.838 -837.929 378.137
102 2 -20.5465 -53.6244 -18.8866 -166.13 -483.535 -557.395 14.1708 -221.2 32.8194 -246.615 529.403
105 2 -23.0767 -53.1695 -19.3224 -394.046 -542.35 -419.856 -48.8135 213.344 -108.42 -244.491 444.739
108 2 -21.9407 -52.4889 -16.9725 -505.981 -453.08 -307.124 58.1057 -18.5428 201.695 -247.289 406.233
193 1 -24.4969 -48.7 -19.3613 996.939 1096.65 778.634 32.1116 64.2583 33.2819 -831.504 313.323
194 1 -21.9257 -51.3645 -15.795 987.519 994.878 988.458 -133.8 -12.1317 23.4731 -842.592 236.326
195 1 -21.9696 -48.7802 -17.6181 770.601 1133.35 1199.74 -38.896 -126.876 100.593 -828.715 493.218
198 2 -20.4017 -48.9038 -18.021 -190.652 -500.796 -630.126 -16.6659 -40.9942 -26.9774 -254.38 401.353
199 2 -24.7418 -49.83 -20.5135 -561.685 -292.732 -341.794 -54.5532 -43.4421 194.415 -247.321 435.349
200 2 -22.2078 -49.9901 -16.5353 -496.58 -424.323 -399.298 -44.919 82.0478 -228.243 -248.484 436.107
201 2 -22.9641 -48.8506 -18.8396 -229.319 -562.186 -528.773 -35.0717 104.906 -55.1855 -255.089 382.932
202 2 -23.0412 -51.5293 -14.6186 -419.122 -550.566 -170.639 -3.96017 -286.402 104.511 -242 624.96
204 2 -22.2375 -47.3084 -16.8634 -434.386 -27.4701 -436.431 -37.4759 -51.3194 290.303 -244.096 656.78
299 2 -24.7384 -47.2269 -20.0139 -555.477 -355.216 -538.314 -124.137 146.559 -56.6821 -252.372 396.571
2593 1 -19.0096 -53.6718 -19.4793 1104.45 774.23 1276.41 -36.6587 -0.650472 -131.98 -833.305 501.688
2689 1 -18.9396 -48.872 -18.6358 850.083 1022.7 1073.13 43.3421 64.3089 -122.135 -827.351 322.239
2693 2 -20.5598 -51.499 -14.9409 -432.985 -488.089 -449.479 -15.8914 214.799 3.22664 -245.534 376.303
2695 2 -18.8886 -49.9444 -19.7985 -621.997 -560.725 -351.636 28.2745 46.8874 81.8081 -251.613 298.923
2699 2 -18.9222 -52.4388 -20.556 -568.325 -46.9742 -362.75 -52.3479 77.1377 -286.294 -245.242 691.994
2795 2 -18.6821 -47.4208 -19.3865 -470.778 -245.524 -385.822 -4.94753 6.05559 -249.221 -251.848 474.697
2788 1 -18.9847 -46.2214 -20.4034 907.103 1008.07 1025.1 -44.849 -19.903 135.477 -835.488 272.925
2692 1 -19.0491 -50.874 -21.0959 1141.63 1141.95 645.332 -86.6785 83.2688 -65.3226 -832.309 550.102
27654 2 -25.5345 -48.8892 -18.1986 -398.872 -605.379 -532.511 -29.626 -72.4874 56.1043 -251.356 246.468
2697 2 -17.7652 -49.0811 -17.4761 -154.057 -428.128 -324.425 -21.3912 280.293 7.75418 -254.64 542.856
2873 2 -20.4128 -46.338 -21.0875 -408.695 -597.562 -583.817 -79.1828 54.3496 -62.2032 -248.871 269.338
27558 2 -25.5012 -53.3252 -18.5387 -544.386 -513.276 -265.692 -12.0097 -129.238 29.3737 -250.953 350.851
203 2 -24.9106 -52.3748 -20.997 -486.84 -308.931 -459.891 175.128 -123.501 -195.375 -251.074 529.022
2601 2 -17.9439 -53.4389 -18.236 -299.864 -504.308 -232.699 59.904 311.104 54.2362 -249.076 608.265
2698 2 -17.8931 -51.2631 -14.6096 -166.277 -527.606 -409.597 -4.10856 -190.743 -50.7358 -250.604 467.725
2595 1 -16.4961 -53.4511 -17.5181 1170.43 1078.17 920.761 43.2431 40.9886 -65.3207 -835.821 266.95
2598 2 -15.4026 -53.3036 -18.7262 -337.385 -550.991 -338.436 -5.78979 -218.716 -78.1955 -246.688 455.367
2604 2 -16.1981 -52.2645 -16.4613 -518.629 -256.652 -314.687 8.21593 -10.2108 193.597 -251.348 412.008
2690 1 -16.4091 -51.2538 -15.1879 903.557 1141.23 874.286 -32.008 -174.023 130.007 -832.587 457.092
2691 1 -16.285 -48.7456 -16.9176 997.473 986.11 1027.21 124.811 61.7005 120.779 -829.941 321.352
2694 2 -15.2637 -48.7507 -18.161 -337.982 -575.166 -430.218 41.3272 -148.447 -168.983 -254.416 446.974
2696 2 -15.9846 -49.738 -15.6986 -508.356 -324.826 -363.694 82.1732 -58.3904 -175.165 -247.704 388.066
2700 2 -16.1265 -47.1859 -16.3647 -472.972 -195.436 -588.199 93.3076 61.1928 76.0754 -243.452 420.711
5089 1 -14.4265 -53.4495 -20.007 998.744 753.347 1120.64 100.116 -14.9271 36.0735 -833.341 373.677
5091 1 -11.8116 -53.3564 -18.3641 834.368 1041.66 970.957 -84.1081 -171.161 25.0568 -829.539 379.876
5097 2 -12.9078 -53.1737 -19.459 -313.567 -495.692 -651.74 118.707 88.8407 114.368 -253.896 437.187
5100 2 -11.9352 -52.231 -17.2109 -556.294 -260.346 -403.588 41.1249 -25.8979 144.441 -253.595 367.95
5185 1 -14.2756 -48.6436 -19.4189 1054.75 863.009 909.286 49.9644 5.32929 22.5717 -831.015 197.832
5186 1 -11.7726 -51.1021 -16.0708 1084.18 998.607 812.148 -61.96 36.1833 -2.05908 -836.95 271.117
5187 1 -11.7762 -48.426 -17.6375 936.456 761.548 1054.56 131.792 -124.496 -21.2233 -831.71 406.391
5191 2 -14.6442 -49.7745 -20.5179 -521.276 -511.23 -357.508 10.5783 41.7039 107.269 -250.593 255.634
5192 2 -12.0713 -49.6428 -16.635 -502.655 -363.648 -575.962 -50.6111 4.421 -39.2688 -253.258 217.385
5193 2 -12.7446 -48.6967 -18.8842 -225.664 -549.388 -572.175 46.7685 158.174 95.2223 -250.635 470.653
5194 2 -12.7876 -51.3995 -14.8451 -375.077 -595.128 -163.558 8.07685 -262.867 32.7456 -241.956 591.961
5196 2 -12.0193 -46.984 -17.0456 -637.049 -286.738 -530.511 50.2655 62.7037 108.47 -246.126 389.127
5291 2 -14.3852 -47.283 -20.2504 -630.729 -401.473 -585.085 -0.922816 -109.262 -91.4748 -248.156 324.188
5195 2 -14.6735 -52.3534 -21.1297 -601.627 -361.462 -572.123 20.9543 -32.1553 -69.4372 -244.052 265.231
2615 2 -19.7438 -57.6062 -14.0394 -610.135 -293.375 -478.052 7.18629 -77.5523 -45.9225 -250.364 316.968
112 1 -24.2909 -56.0756 -13.995 832.243 1221.09 689.645 -27.7317 -93.0149 149.071 -839.331 567.372
16 1 -24.0459 -61.6223 -13.4634 1026.35 841.924 1073.86 34.9402 -54.595 83.8762 -840.015 280.609
13 1 -24.0907 -58.6856 -12.2298 1031.78 962.657 1153.56 -3.1906 -137.144 -11.9668 -828.175 291.393
14 1 -21.6293 -61.3058 -8.71332 653.381 943.052 1061.67 -57.2621 -117.753 141.806 -853.318 494.068
15 1 -21.6149 -58.6029 -10.4321 1058 1027.77 714.089 -113.341 -160.382 -282.965 -831.705 681.694
18 2 -20.5528 -58.5349 -11.6676 -220.629 -633.915 -295.995 9.90379 -186.184 0.819747 -249.637 499.628
19 2 -23.8581 -60.1494 -12.8464 -512.375 -260.131 -508.984 92.9376 41.7776 148.591 -253.687 400.212
20 2 -21.5661 -60.1424 -9.78441 -581.513 -266.587 -547.458 4.71729 34.5218 -151.112 -238.109 402.194
21 2 -23.1381 -58.4027 -10.9759 -194.594 -568.858 -458.17 56.0797 127.502 54.9449 -251.747 422.091
22 2 -23.0735 -61.2742 -8.1037 -274.882 -543.703 -668 -109.319 45.8829 61.2112 -241.159 417.776
24 2 -21.3077 -57.6121 -9.31829 -604.217 -689.245 -665.662 -13.7461 -43.0775 -65.3624 -254.258 157.262
110 1 -21.5131 -56.4762 -8.21628 861.621 964.454 992.731 -54.8085 -143.067 -121.098 -832.781 358.737
115 2 -24.1105 -54.7792 -12.9649 -544.364 -146.323 -194.425 -25.8129 -2.65926 266.106 -242.617 596.708
116 2 -21.2988 -55.0634 -8.96563 -600.475 -498.722 -609.851 20.3533 -7.33356 -33.2222 -248.556 126.928
118 2 -23.0476 -56.4888 -7.66132 7.0314 -541.773 -602.975 -89.3119 -144.285 102.923 -241.765 675.784
119 2 -23.8986 -57.4722 -13.3033 -558.579 -224.151 -525.795 -72.4214 71.6092 -111.76 -246.007 412.968
2509 1 -19.4948 -58.7344 -12.892 974.321 799.005 919.836 60.5606 -83.9374 -208.658 -833.319 432.327
2513 2 -20.4846 -61.1395 -7.65985 -471.826 -544.267 -683.232 -11.7236 62.0328 -81.7627 -243.201 258.143
2515 2 -19.6387 -60.212 -13.3716 -577.959 -689.267 -566.391 41.3795 58.3142 17.0436 -252.54 173.265
2611 2 -19.7824 -54.9728 -13.646 -539.746 -198.62 -431.127 68.8831 84.6142 151.183 -249.714 442.035
28 1 -24.6523 -61.1859 -7.60911 935.077 976.189 901.441 -22.3293 -133.276 12.6565 -839.85 243.861
124 1 -24.5582 -56.3188 -7.01908 955.252 981.355 1146.63 -9.80788 -38.4056 -9.04427 -839.452 193.051
2517 2 -18.0179 -58.423 -12.3793 -505.348 -565.629 -527.332 -9.05521 67.9863 70.9567 -245.794 178.91
2518 2 -17.9455 -60.9561 -8.16071 -245.563 -546.701 -112.738 -23.1504 -313.038 3.29323 -247.398 666.291
23 2 -23.7724 -62.734 -12.3617 -583.143 -446.492 -570.459 -79.33 -7.66218 -108.908 -243.977 267.843
2424 2 -21.3377 -62.7819 -9.46386 -490.612 -226.266 -472.03 -87.4966 -88.2488 242.805 -239.276 537.127
2609 2 -20.4919 -56.7113 -7.01145 -402.671 -549.395 -478.833 -36.6004 119.405 -90.1787 -251.396 295.537
5104 1 -13.9659 -55.9129 -14.0385 1206.79 1206.71 718.028 136.205 67.2392 -158.524 -834.36 619.242
2614 2 -18.0012 -56.7126 -7.82492 -521.991 -558.427 -258.869 -26.7903 -164.5 9.83976 -250.187 404.688
5015 2 -13.5693 -62.6081 -12.2852 -548.091 -696.919 -571.962 -64.5553 20.8914 -30.5896 -254.678 189.17
4920 2 -17.1453 -62.7536 -9.91964 -476.097 152.221 -428.915 2.52075 17.55 292.149 -245.769 790.165
5008 1 -13.9 -61.6749 -13.5082 1087.04 864.584 818.921 -28.3205 -67.9831 133.056 -832.103 362.093
2510 1 -16.8963 -61.2061 -9.41597 1110.83 997.519 1108.47 61.7052 -116.788 60.0235 -835.329 275.185
2511 1 -16.867 -58.7052 -11.2928 554.997 992.34 949.504 -3.82344 46.6847 -78.8831 -838.343 446.788
2514 2 -15.4776 -58.6062 -11.9214 -678.585 -570.999 -673.796 77.2323 15.3256 12.7779 -246.375 173.699
2516 2 -17.1307 -60.1756 -10.6459 -555.915 -301.324 -343.826 -16.7932 -7.74656 -198.373 -247.381 418.191
2520 2 -16.9941 -57.6368 -10.1017 -535.229 -330.417 -547.818 0.259413 8.44499 77.0443 -255.102 250.412
2606 1 -16.9338 -56.4862 -9.00702 966.657 1085.9 868.218 -8.83707 129.843 -68.7219 -830.126 317.219
2612 2 -17.1016 -54.9736 -9.63785 -526.698 -168.848 -633.758 14.9365 -110.058 -59.2793 -252.031 474.741
5005 1 -13.9457 -58.6811 -12.4414 853.407 789.438 1096.82 0.812855 -9.98147 -137.96 -839.278 369.204
5006 1 -11.3737 -61.281 -8.68323 846.868 826.692 936.475 -51.4896 -91.7411 118.358 -846.471 292.358
5007 1 -11.4962 -58.7628 -10.566 1007.82 972.542 748.372 -6.12928 -121.668 -45.363 -844.941 331.813
5009 2 -15.3845 -61.0455 -8.91453 -383.174 -546.965 -510.207 -21.9511 107.166 25.4417 -248.743 244.947
5011 2 -13.8164 -60.0977 -13.1286 -660.108 -297.865 -706.472 18.4118 -21.5535 -23.2064 -242.606 392.672
5012 2 -11.2915 -60.1935 -9.79928 -669.535 -339.601 -700.361 -45.8698 80.4523 -42.4813 -239.871 388.743
5013 2 -12.9461 -58.7168 -11.212 -562.244 -591.428 -592.445 -58.5373 9.16068 -86.7607 -245.73 184.381
5014 2 -12.8862 -61.0844 -8.10672 -450.485 -518.374 -612.186 -110.898 -44.0782 65.369 -246.313 274.448
5016 2 -11.361 -57.5749 -9.55219 -592.797 -365.689 -423.497 -67.4197 -36.7533 118.623 -247.312 318.896
5102 1 -11.4379 -56.4453 -8.34427 921.608 999.263 1136.73 46.7024 12.5645 70.9791 -832.332 240.277
5105 2 -15.5421 -56.4843 -8.16508 -300.625 -551.017 -218.142 -6.05828 329.636 -24.1951 -243.41 646.528
5107 2 -13.6918 -54.7408 -12.9973 -496.364 -349.125 -272.003 -45.1631 -32.0693 239.041 -250.425 468.624
5108 2 -11.0546 -55.0279 -8.97275 -523.428 -487.788 -543.744 88.8136 -131.604 -135.277 -248.482 364.594
5110 2 -12.8783 -56.574 -7.64559 -205.872 -473.085 -478.065 61.7308 -171.513 -41.9803 -254.358 421.577
5111 2 -13.6863 -57.3958 -13.4065 -617.087 -88.7668 -339.334 25.1248 -71.4986 -180.676 -250.626 569.814
5020 1 -14.3843 -61.2341 -7.67366 788.293 929.612 957.081 17.0335 -76.7563 32.0539 -836.447 215.023
5116 1 -14.3596 -56.3991 -6.9814 1121.95 653.524 1216.41 -0.583098 97.9344 -118.212 -828.611 585.912
7505 2 -10.2368 -61.0392 -7.62494 -525.611 -611.522 -688.136 -47.4001 -2.74336 -75.0878 -242.442 208.59
2704 1 -19.3898 -51.2014 -13.8802 1029.38 870.854 1100.11 158.349 -86.3775 127.646 -840.192 433.398
27666 2 -25.6506 -47.9671 -11.726 -286.388 -463.908 -491.115 29.5154 -218.551 -33.0223 -251.092 431.581
2807 2 -19.7525 -47.2516 -13.9875 -545.842 -345.493 -439.611 28.7338 -80.416 -217.261 -239.797 440.029
114 2 -20.4019 -54.1821 -11.2141 -559.223 -640.96 -606.189 -52.2635 18.0834 68.0112 -250.586 167.63
117 2 -22.9918 -54.143 -10.6255 -247.785 -631.084 -571.386 -15.5053 71.3094 55.8355 -237.665 391.061
208 1 -24.1172 -51.2649 -13.3979 1014.2 954.121 1134.48 -46.3928 -47.7157 69.8396 -836.903 230.699
109 1 -24.1764 -53.7826 -11.6488 822.794 922.679 1156.81 56.4455 -40.1398 115.848 -844.602 377.932
111 1 -21.461 -53.965 -10.0609 966.87 764.132 818.127 70.351 59.8119 85.2501 -842.815 283.644
120 2 -21.4478 -52.4894 -9.4701 -519.16 -387.704 -602.519 -132.539 -80.4772 118.402 -246.601 386.489
205 1 -24.1842 -48.2453 -12.2662 837.011 902.108 1087.03 23.5182 -41.2188 59.1027 -837.758 260.206
206 1 -21.6183 -51.0005 -8.86589 749.07 843.693 1392.5 37.5804 15.4919 -0.610446 -833.982 605.828
207 1 -21.6946 -48.3679 -10.4263 991.894 1120.04 972.285 13.7522 -131.037 66.8027 -831.065 291.179
210 2 -20.5557 -47.9164 -11.5687 -328.915 -549.777 -336.957 26.1906 -218.953 8.86293 -244.098 439.525
211 2 -24.0189 -49.7568 -12.8303 -471.153 -209.089 -517.578 -58.1203 -48.7446 144.693 -250.634 403.819
212 2 -21.3411 -49.9135 -10.0703 -459.459 -233.625 -349.266 -94.8732 42.4226 -222.558 -248.352 468.249
213 2 -23.1071 -48.1334 -11.0653 -479.084 -577.051 -514.095 -51.2 133.462 -41.0443 -249.35 271.566
214 2 -23.0863 -50.7638 -8.32743 -294.97 -507.691 -618.173 115.276 -79.9829 -74.7792 -253.296 395.969
215 2 -23.8559 -52.3187 -12.1827 -506.365 -468.778 -460.38 11.2432 -21.77 -171.802 -244.539 303.559
216 2 -21.4739 -47.4317 -9.10104 -571.457 -148.245 -242.407 126.178 109.299 241.73 -249.4 637.986
311 2 -23.779 -47.1159 -13.3353 -603.601 -167.064 -554.569 20.0094 -37.8794 -77.7629 -244.054 441.827
2605 1 -19.4018 -53.9634 -12.404 851.859 1158.04 819.322 -8.60394 101.03 111.838 -832.822 416.095
2701 1 -19.4962 -48.1961 -12.7138 990.199 1022.76 963.86 25.2775 74.0575 121.122 -846.641 254.938
2705 2 -20.5344 -50.8615 -7.65245 -270.177 -534.843 -424.805 11.3138 203.77 -0.562485 -246.171 421.883
2707 2 -19.4476 -49.7274 -13.2343 -511.07 -306.696 -476.134 -20.9292 23.9053 197.166 -247.674 394.336
2711 2 -19.506 -52.3698 -12.8079 -595.904 -185.229 -617.243 -4.76894 -80.8186 -69.5449 -242.597 460.484
220 1 -24.5825 -50.8619 -7.7187 973.382 992.292 1043.37 24.6735 46.4512 -105.804 -831.013 214.047
316 1 -24.5583 -46.0985 -7.15034 928.2 817.339 1056.39 55.2816 -132.467 153.135 -837.807 418.444
2710 2 -18.0064 -50.6916 -8.13474 -499.385 -542.803 -462.773 -72.0261 -64.1209 80.3007 -255.496 228.161
302 1 -21.4883 -46.1023 -8.1309 869.766 1164.33 949.06 49.1246 25.3144 100.247 -838.714 330.164
310 2 -23.0257 -46.0051 -7.70884 -197.423 -610.715 -569.437 88.6847 -10.6497 -72.7589 -246.396 441.894
27570 2 -25.5963 -53.882 -10.9401 -312.427 -598.089 -543.096 -0.245572 -69.6635 45.0344 -244.38 299.268
2806 2 -17.7569 -45.9885 -7.69945 -416.431 -618.492 -476.695 71.7767 -95.3138 -64.2904 -242.057 295.623
227 2 -24.82 -52.241 -6.93155 -538.662 -337.84 -470.072 -2.75195 45.4461 -145.353 -253.103 317.587
2716 1 -19.0657 -50.8313 -6.97708 956.613 1096.03 945.488 30.7062 75.1011 -141.611 -836.889 317.84
2613 2 -17.933 -54.1302 -11.8375 -375.677 -627.34 -542.251 145.229 169.105 94.0062 -249.965 474.063
2709 2 -18.0032 -47.84 -12.1341 -244.144 -556.169 -564.337 -34.979 138.752 -71.2366 -236.945 420.269
5189 2 -15.3191 -51.6081 -14.1055 -293.674 -610.922 -553.586 120.198 130.893 40.7771 -245.814 430.667
5302 2 -12.7366 -46.1153 -7.51908 -438.272 -595.531 -558.472 -111.66 -25.6266 108.629 -245.004 308.302
5109 2 -12.6915 -54.0515 -10.621 -296.59 -480.663 -580.596 93.2713 100.585 54.87 -255.646 357.417
2798 1 -16.7656 -45.8781 -8.97188 983.989 980.445 891.206 10.5749 37.8156 16.6533 -843.939 117.26
2610 2 -15.3118 -53.7097 -11.07 -131.111 -494.083 -535.397 21.4784 -72.2675 27.1481 -261.732 409.53
5200 1 -13.8227 -51.2101 -13.5593 1087.74 1130.77 1035.65 -58.937 -52.4271 151.498 -834.826 307.128
2607 1 -16.8822 -53.7904 -10.663 894.402 875.744 1017.99 33.4632 -2.36359 74.9194 -826.235 195.304
2616 2 -17.2257 -52.3243 -10.0475 -575.242 -386.45 -499.95 -19.4167 -27.4301 97.2931 -253.782 242.658
2702 1 -17.0584 -50.9008 -9.40772 1058.91 695.041 912.684 31.1257 135.151 47.6249 -833.83 406.303
2703 1 -16.9008 -48.248 -11.0248 796.219 955.017 958.004 20.6583 20.0635 -158.145 -841.864 321.275
2706 2 -15.4237 -48.1782 -11.5727 -456.09 -529.75 -609.643 36.3688 14.4765 -4.5391 -250.964 149.506
2708 2 -17.2956 -49.7311 -10.4453 -515.512 -343.967 -532.482 64.9378 -88.8198 -121.388 -247.762 336.378
2712 2 -17.0444 -47.1641 -9.89735 -614.607 -346.737 -761.668 31.5416 -34.96 5.26507 -243.255 373.509
5101 1 -13.8382 -53.7256 -11.6842 816.409 1074.66 1219.63 -48.3593 -152.589 -1.13498 -820.453 449.463
5103 1 -11.2024 -53.8412 -10.0405 924.396 775.622 1035.61 -4.35744 14.9108 100.187 -830.182 286.155
5112 2 -11.0521 -52.4634 -9.2559 -455.643 -407.989 -460.13 -9.0004 -7.33057 158.434 -256.289 279.666
5197 1 -13.9344 -48.3069 -12.134 757.198 966.578 1050.29 -21.311 -4.12726 81.5775 -840.943 299.588
5198 1 -11.3296 -50.9708 -8.71084 914.546 930.658 1073.5 -63.9219 -126.101 24.1386 -828.593 290.991
5199 1 -11.2795 -48.4151 -10.4833 935.378 1098.55 982.222 -18.6787 44.8427 148.57 -830.007 307.367
5201 2 -15.5001 -50.7188 -8.87408 -297.129 -569.493 -590.533 49.4388 65.4953 24.6071 -244.277 319.958
5203 2 -13.8072 -49.6849 -12.9898 -475.702 -179.034 -438.164 15.0552 -50.2582 192.294 -250.629 444.379
5204 2 -11.0066 -49.8611 -9.84656 -522.986 -291.71 -509.395 39.1043 -42.3358 -188.396 -251.354 408.624
5205 2 -12.7731 -48.3224 -11.0515 -326.281 -596.428 -602.696 4.5629 51.283 10.1869 -250.881 288.055
5206 2 -12.9138 -50.8136 -8.30965 -206.068 -503.598 -553.699 -1.8047 -117.032 1.51254 -251.786 383.467
5207 2 -13.4824 -52.2519 -12.3908 -508.111 -226.058 -400.558 79.2791 -32.0279 -328.083 -246.525 636.894
5208 2 -11.1015 -47.265 -9.27459 -497.938 -155.614 -277.1 10.467 -50.684 267.086 -246.966 558.925
5303 2 -13.7043 -46.9994 -13.0409 -600.73 -293.54 -481.753 -23.9543 -32.8392 -197.622 -240.798 440.56
5212 1 -14.4057 -50.8759 -7.74741 787.88 973.979 885.697 21.6503 -59.5807 -22.24 -838.014 198.839
5297 2 -15.2983 -45.9777 -8.3395 -448.906 -624.447 -498.529 -71.236 144.93 -84.1268 -243.189 352.188
5294 1 -11.2859 -46.0973 -8.16668 776.926 1086.3 1011.92 -62.8263 -3.5337 41.7324 -845.316 308.77
5106 2 -10.1472 -54.0034 -11.2534 -338.946 -567.851 -491.668 -10.9386 -140.958 -53.3445 -249.769 330.554
125 2 -25.5043 -55.7699 -0.555613 -346.02 -586.154 -414.828 -41.3205 282.556 45.0483 -235.65 544.61
2524 1 -19.0346 -61.2271 -6.96439 1051.44 987.588 1048.31 -101.967 -96.0726 -9.62948 -841.611 251.09
2620 1 -18.9671 -56.5226 -6.53681 1030.08 871.286 945.359 -58.3019 -59.9171 7.2267 -826.86 200.162
25 1 -24.3341 -59.0097 -5.30391 1084.94 1065.82 917.745 61.4946 -69.1888 11.6121 -838.745 226.347
26 1 -22.1678 -61.5459 -1.89165 1131.63 956.77 875.255 -58.7941 102.887 209.582 -841.106 474.739
27 1 -21.8703 -58.8735 -3.46131 920.833 891.614 1337.59 -142.909 -39.895 8.50238 -832.162 502.97
30 2 -20.2981 -58.9794 -3.81242 -190.345 -471.858 -541.467 7.98535 -199.251 -36.7559 -249.786 476.486
31 2 -24.6883 -60.0396 -6.49315 -540.565 -579.492 -271.994 86.6619 132.226 112.348 -248.303 443.789
32 2 -22.215 -60.0714 -2.36905 -541.262 -422.699 -428.799 88.6853 2.42001 -141.269 -250.354 311.216
33 2 -22.7971 -59.0743 -4.78114 -145.688 -584.971 -408.786 98.2692 219.58 -16.1665 -248.51 566.583
34 2 -23.2948 -61.8162 -0.787313 -447.274 -662.815 -475.808 11.7758 -16.9225 -75.3397 -249.086 243.773
36 2 -22.314 -57.4432 -2.83797 -474.084 -245.51 -572.061 -88.1135 -81.8592 192.357 -245.472 488.507
122 1 -22.0603 -55.9383 -2.30254 773.642 894.448 1079.83 -46.5083 -15.8418 34.4683 -841.836 286.643
127 2 -24.6624 -54.8434 -6.37082 -561.398 -308.184 -479.35 11.7385 -41.7634 106.673 -252.042 299.761
128 2 -22.2542 -54.9216 -3.55894 -569.374 -429.18 -473.946 -16.2713 38.8307 -94.1049 -241.966 217.411
130 2 -23.0322 -55.568 -1.09083 -522.521 -531.633 -489.818 68.0045 -80.0137 -69.4756 -243.145 221.385
131 2 -24.5565 -57.5343 -5.93136 -629.734 -235.133 -522.482 -96.0998 35.0622 -212.897 -238.227 540.61
2521 1 -18.8856 -59.0167 -4.61516 879.129 981.712 1117.46 88.2668 -53.636 81.7793 -836.547 308.131
2525 2 -20.6597 -61.8349 -1.1828 -162.965 -618.644 -552.748 -88.5057 113.356 -84.8562 -236.995 515.372
2527 2 -19.0173 -60.2345 -5.71349 -539.78 -338.582 -327.61 18.6552 -17.8063 168.933 -248.397 361.136
2621 2 -20.5786 -55.8836 -1.79972 -575.25 -614.953 -616.798 17.0451 52.9649 69.8912 -247.112 159.984
2623 2 -18.8603 -55.0707 -5.92069 -585.139 -411.051 -522.041 -22.8923 -29.4893 -0.975804 -256.41 165.793
2627 2 -18.6015 -57.6787 -5.42279 -506.974 -323.319 -380.676 -52.6563 25.4807 -215.708 -252.607 419.93
2632 1 -19.4517 -55.9567 -0.674715 690.675 986.69 979.96 66.9587 -125.016 82.7986 -838.409 408.145
2626 2 -17.9912 -55.8562 -1.23377 -516.853 -544.85 -580.005 -67.1941 63.3031 34.3981 -253.79 179.222
2436 2 -22.2226 -62.6726 -3.06827 -577.079 -98.5576 -360.349 -110.34 -118.091 243.65 -241.501 654.754
2530 2 -17.9725 -61.7451 -0.896006 -461.134 -577.301 -579.982 -50.3013 0.885129 4.59942 -246.719 146.526
2529 2 -17.7314 -59.2852 -3.52277 -480.017 -534.942 -423.059 -15.8425 175.834 -27.7962 -244.995 324.366
2536 1 -19.4294 -61.6429 -0.222949 827.23 1058.96 983.667 -5.63603 -112.034 126.233 -848.885 357.036
2531 2 -18.744 -62.7287 -6.36974 -521.222 -254.402 -521.782 -4.5583 44.359 -235.687 -241.571 493.916
2522 1 -16.4432 -61.7574 -1.27325 927.246 972.394 908.275 91.9052 21.3104 5.17938 -841.876 173.313
2523 1 -16.2561 -59.0757 -2.90548 1058.78 1053.01 915.872 -34.8323 35.3793 45.0534 -836.759 181.978
2526 2 -15.2285 -59.3019 -4.10099 -538.309 -574.467 -538.185 -62.1354 -60.1295 136.12 -248.644 281.65
2528 2 -16.0168 -60.3061 -1.84444 -653.938 -105.38 -537.606 26.3444 -8.64629 -125.422 -241.682 547.843
2532 2 -16.2717 -57.5778 -2.2462 -561.058 -61.2676 -417.376 -128.448 -86.5293 133.927 -250.416 569.554
2618 1 -16.4708 -56.0623 -1.68482 926.775 931.034 951.93 5.49176 5.3995 69.4843 -836.353 123.312
2624 2 -16.2164 -54.9349 -2.79023 -675.748 -450.561 -526.903 43.9824 -17.7175 -76.6483 -246.735 252.421
5017 1 -14.3105 -59.1545 -5.38335 1080.14 854.417 726.691 -21.2633 64.8392 -57.1947 -838.913 346.233
5018 1 -11.9304 -61.6528 -1.9709 1189.42 878.422 805.482 -54.5705 -86.6866 129.124 -843.497 454.116
5019 1 -11.7342 -59.1229 -3.73661 943.721 967.468 1112.42 36.2174 -64.4264 154.091 -846.972 335.612
5023 2 -14.7403 -60.1557 -6.523 -577.717 -460.226 -487.17 -21.957 4.82539 28.3567 -250.236 123.664
5024 2 -12.0487 -60.186 -2.58703 -677.092 -530.362 -553.271 -6.53562 5.8352 -135.096 -236.049 271.434
5025 2 -12.7613 -59.376 -4.92331 -249.201 -522.077 -579.152 -7.03971 160.996 -3.42294 -248.218 413.807
5026 2 -13.0758 -61.725 -0.834917 -302.303 -594.035 -298.454 -107.576 -173.051 119.922 -245.005 503.932
5028 2 -11.9893 -57.5866 -3.15998 -695.184 -311.979 -632.757 -5.42268 12.0979 11.2892 -234.554 357.393
5114 1 -11.9199 -56.1837 -2.4757 1048.93 825.524 814.542 -58.9206 -14.5886 -112.495 -853.685 318.594
5117 2 -15.3535 -55.9112 -0.540073 -448.232 -546.482 -488.896 -28.782 220.787 -90.8069 -248.233 425.177
5119 2 -14.4982 -54.988 -6.37056 -655.097 -587.655 -707.32 -87.5414 -69.548 -194.564 -254.931 402.324
5120 2 -12.1876 -54.9227 -3.43982 -550.492 -265.379 -385.907 -8.52935 35.1545 -132.303 -248.997 343.352
5122 2 -12.9956 -56.2164 -1.29309 -543.678 -653.018 -443.014 116.548 -60.819 -36.4953 -238.995 298.225
5123 2 -14.515 -57.662 -5.92727 -566.369 -228.858 -433.662 -54.9293 31.989 -212.721 -246.171 484.363
7613 2 -10.4287 -56.1074 -1.85843 -375.203 -653.237 -530.687 -62.0235 85.0386 33.7843 -240.644 308.071
5021 2 -15.4684 -61.903 0.00982506 -577.665 -595.994 -494.296 0.162464 128.542 140.44 -243.942 342.861
7517 2 -10.4034 -61.7794 -1.43154 -221.033 -582.688 -527.54 73.1669 40.6329 9.65216 -245.965 367.673
4932 2 -16.2162 -62.9297 -2.35955 -662.074 -395.132 -409.934 -5.7954 -29.8275 65.8556 -248.84 288.628
7428 2 -12.0695 -62.6481 -3.22226 -601.184 -336.307 -224.922 -43.9905 -48.796 133.777 -248.831 422.738
2801 2 -20.3461 -46.0892 -7.01697 -277.668 -644.225 -581.885 -6.01359 -12.4008 89.398 -245.338 374.092
121 1 -24.5283 -53.3547 -5.81741 1046.73 875.611 868.46 -103.902 12.8055 73.8135 -836.935 282.456
123 1 -21.9359 -53.47 -4.14763 694.485 1059.88 975.579 12.3072 -59.1861 119.402 -840.396 404.413
126 2 -20.4367 -53.5184 -4.61334 -690.08 -666.655 -583.638 -156.416 54.7135 94.0566 -247.994 343.953
129 2 -22.9794 -53.2186 -5.32931 -209.639 -655.196 -562.164 -15.4348 79.8659 -11.6362 -244.181 431.256