ITEM: TIMESTEP
1240000
ITEM: NUMBER OF ATOMS
29952
ITEM: BOX BOUNDS pp pp pp
-2.5615833775063237e+01 3.5601128117061187e+01
-1.0267692730178300e+02 1.1266222163598175e+02
-2.1035324467156940e+01 3.4903177627851115e+01
ITEM: ATOMS id type x y z v_StrAtomXX v_StrAtomYY v_StrAtomZZ v_StrAtomXY v_StrAtomXZ v_StrAtomYZ c_PEAtom v_VMS
4990 2 -16.9086 -69.1672 -17.8302 204.339 -185.864 -663.279 -489.439 237.415 -196.516 -259.958 1253.03
7486 2 -11.8488 -69.2419 -15.9206 -81.6431 -182.721 -1133.41 -23.196 102.349 -249.451 -312.941 1108.98
7396 1 -13.2875 -70.3 -15.5626 381.964 393.442 1972.43 -27.5009 -116.114 50.6308 -725.826 1600.58
7481 2 -14.4004 -70.2409 -16.6926 250.726 -101.89 -816.43 -141.654 387.162 -220.428 -279.247 1241.98
4812 2 -16.7602 -70.2772 -15.7084 -456.284 -264.344 -783.895 -172.954 -129 123.985 -270.721 626.762
7478 1 -10.7815 -70.2572 -15.0808 378.591 344.26 1891.54 160.597 -282.995 83.3387 -722.737 1637.25
4982 1 -16.0156 -70.4769 -17.1534 977.907 500.259 1596.39 221.409 51.9013 0.754904 -811.631 1030.16
7392 2 -12.0985 -71.3055 -15.1132 456.307 -174.595 -829.774 23.4933 224.805 12.8291 -271.182 1180.85
4896 2 -16.2454 -71.6848 -18.0678 -322.373 69.4074 -439.35 22.7015 51.7176 72.7591 -167.199 488.32
7399 2 -13.9751 -69.4364 -14.3705 -347.315 -172.116 -763.292 -428.68 -238.817 278.129 -266.529 1109.54
4904 2 -18.4629 -68.1571 -16.0221 47.4405 -508.751 -107.357 -424.151 16.679 -21.3934 -304.895 888.333
2400 2 -19.5374 -68.2009 -18.5805 305.82 -396.288 -284.133 -225.482 529.662 -137.812 -274.202 1215.7
4901 2 -21.0542 -68.1661 -15.103 -67.0737 -481.502 -572.461 -156.177 111.415 -189.707 -285.359 660.378
4912 1 -19.5894 -67.9507 -14.6543 319.719 837.061 1181.75 286.027 -111.247 5.95195 -740.388 920.567
2316 2 -21.8468 -67.82 -17.554 -473.054 -519.547 -173.431 -37.719 -166.484 -66.137 -279.993 454.321
2494 2 -22.0217 -67.9817 -20.395 68.1015 -348.066 227.617 -73.9337 710.602 -211.483 -266.622 1389.41
2410 2 -23.7225 -67.5475 -15.5341 149.755 -451.631 -590.967 -248.813 -284.911 -75.908 -288.548 954.676
2486 1 -21.1258 -67.6178 -19.0157 1240.88 817.68 1276.87 -14.678 56.565 52.19 -759.799 462.645
2402 1 -22.2147 -67.4757 -16.0478 433.251 939.337 1198.96 186.708 159.995 239.532 -766.144 899.124
2416 1 -25.1745 -67.2451 -14.8508 561.159 874.718 1335.63 -75.7161 -180.538 -29.3227 -740.107 756.865
4985 2 -20.8489 -66.0176 -19.093 -561.995 -365.498 -681.892 13.4617 -46.0238 -26.776 -280.417 292.566
2407 2 -23.6028 -66.0798 -20.138 -464.694 -703.451 -349.683 -35.9834 -178.635 49.847 -274.994 452.506
2408 2 -21.9323 -65.8421 -15.949 -367.894 -45.6731 -668.986 -194.839 -22.7524 -101.503 -272.853 661.702
2401 1 -24.4806 -65.1912 -19.1231 703.393 753.828 767.153 58.1269 135.803 109.461 -778.298 323.731
2409 2 -23.668 -65.1017 -17.7058 -525.049 -560.587 -444.396 -60.5027 3.36906 -82.3827 -277.118 204.965
4897 1 -20.4882 -64.5041 -18.8498 457.308 565.843 1108.29 5.40405 292.638 332.77 -769.629 976.784
2403 1 -22.5614 -64.5436 -16.7097 772.231 516.331 941.801 35.9329 180.905 -192.004 -769.958 591.846
4905 2 -18.9741 -64.4004 -18.3562 -243.593 -408.93 -698.089 -45.9646 -44.366 -130.887 -279.295 471.588
2406 2 -21.4095 -63.9748 -17.6841 -523.37 -494.446 -480.141 -31.2232 -140.122 -94.6517 -279.267 300.265
11 2 -24.5149 -63.8174 -19.8593 -485.688 -639.083 -579.295 17.8571 11.3793 -41.1847 -275.651 156.1
2507 2 -20.5806 -63.7168 -20.2648 -428.097 -632.727 -352.366 6.65424 -128.686 -129.165 -277.809 403.694
2412 2 -23.0934 -63.4153 -15.784 -562.627 -386.069 -710.238 49.0165 -5.6273 -8.04694 -275.85 294.144
2506 2 -18.48 -62.5427 -15.2866 -203.263 -439.888 -383.198 -28.194 -264.207 31.8885 -268.573 510.532
4900 1 -18.1529 -68.0965 -17.7382 993.981 794.053 1250.23 115.421 -132.489 413.885 -755.622 873.722
5315 2 -14.103 -48.8665 -7.04996 -567.373 -478.212 -629.107 -33.9054 93.615 107.504 -253.154 285.791
4898 1 -17.2896 -69.0562 -14.9043 323.477 814.802 1222.16 458.874 120.186 24.0904 -728.152 1133.25
7397 2 -16.0656 -68.0253 -14.6078 107.664 -333.91 -644.797 287.525 4.23905 -57.4753 -292.831 828.791
7394 1 -11.8596 -67.5698 -15.868 912.851 285.248 1564.76 83.4987 -176.268 412.956 -744.004 1361.52
7402 2 -13.223 -67.3341 -14.9267 312.305 -629.676 -780.706 -83.3225 -167.185 95.7851 -270.328 1088.4
7400 2 -12.2192 -66.8358 -17.2426 -382.314 -265.898 -532.112 -165.653 301.445 -352.686 -284.593 884.038
4903 2 -17.6194 -66.5909 -17.9999 -410.88 -71.6547 -611.809 107.21 -44.0552 -278.671 -283.552 704.9
7401 2 -14.0034 -65.7163 -19.0352 -38.1166 -450.429 -180.568 -97.7562 332.605 -217.349 -287.169 796.133
7395 1 -12.6182 -65.6385 -18.2029 784.05 945.764 992.029 104.446 -94.7731 644.786 -775.12 1158.75
7398 2 -11.3904 -65.5902 -19.2776 -132.648 -619.678 -369.718 -105.222 -258.544 -97.7266 -272.045 663.582
7393 1 -15.0905 -65.0055 -20.0411 585.236 1021.52 947.709 50.5314 189.159 272.902 -755.697 708.536
4899 1 -17.4804 -64.9905 -18.1379 513.014 786.947 1138.76 -98.4129 82.2116 168.065 -765.824 655.178
4902 2 -16.4187 -64.6764 -19.2774 -276.451 -547.191 -629.491 -14.5283 -70.9178 -135.279 -289.351 415.906
4908 2 -17.0751 -64.2805 -16.728 -533.333 -321.216 -398.594 -24.3419 -45.2206 144.96 -273.154 324.838
7404 2 -12.5737 -64.2799 -17.1992 -359.2 67.3226 -203.558 73.0415 73.2132 325.703 -271.177 700.067
5003 2 -14.3816 -63.6292 -20.5955 -438.289 -413.555 -562.122 3.29505 -92.0435 -195.861 -280.673 399.428
4994 1 -12.2982 -63.042 -16.1413 851.971 780.579 1423.94 -125.173 -26.4935 15.0601 -801.131 650.289
5002 2 -13.373 -63.0054 -14.9259 -342.477 -408.683 -244.954 29.4995 -273.626 34.6377 -258.907 501.174
4997 2 -15.9399 -62.9099 -14.7912 -442.493 -517.641 -516.542 -28.2688 132.777 6.70174 -261.196 246.955
2498 1 -17.0541 -62.8845 -15.9716 971.045 719.75 999.812 52.8775 -75.8386 -88.1558 -791.998 346.645
7493 2 -10.8493 -63.254 -15.4149 -178.457 -324.463 -600.397 76.3295 265.7 -7.72065 -261.454 605.964
7408 1 -14.5355 -67.8878 -14.1404 712.008 662.067 1112.37 53.9536 97.9453 -203.706 -771.741 587.176
9893 2 -10.4381 -67.4302 -15.1185 -6.8534 -390.209 -525.283 -302.767 327.919 -84.2115 -274.957 914.253
2501 2 -21.0846 -62.3046 -14.7192 -395.203 -417.367 -620.606 -127.966 -35.8963 -0.756094 -270.295 315.112
2 1 -22.6088 -62.0431 -15.1095 859.586 648.126 1027.84 -43.3891 49.568 -137.085 -797.443 421.9
7 2 -24.1908 -61.3271 -20.4601 -509.753 -587.039 -575.712 10.7361 146.061 40.2703 -270.003 272.833
2503 2 -19.9745 -61.3087 -19.8415 -511.246 -639.013 -563.266 -19.3095 -59.3338 -6.91221 -274.523 155.587
8 2 -22.7578 -60.8064 -16.1184 -549.952 -148.527 -471.494 9.54353 36.5283 -93.6509 -264.061 407.909
9 2 -23.6231 -59.6456 -18.3197 -527.647 -385.039 -540.091 -80.8015 44.4978 106.666 -264.611 286.227
2497 1 -19.8311 -60.0914 -18.8092 602.544 621.343 1126.09 51.6481 212.94 -168.508 -796.375 702.73
6 2 -21.0998 -59.91 -17.9151 -664.458 -483.459 -820.393 -28.2153 142.972 84.3007 -270.464 412.712
1 1 -24.5028 -60.008 -19.599 603.903 590.14 1163.98 197.853 32.491 31.0127 -802.546 667.141
3 1 -22.4499 -59.6239 -17.2282 742.235 605.415 815.881 114.706 33.4524 -433.537 -803.868 800.57
2603 2 -19.8885 -58.7524 -19.7471 -512.597 -413.635 -660.339 -93.4147 58.2495 -38.8541 -258.59 295.176
107 2 -24.4482 -58.7686 -20.6122 -426.962 -225.46 -566.575 -54.0219 -69.8373 -202.831 -258.94 484.805
12 2 -22.3842 -58.2584 -16.4836 -591.427 -465.748 -545.596 -11.6188 38.2202 129.84 -263.904 259.804
2597 2 -20.7824 -57.8631 -14.359 -139.856 -388.176 -459.606 -134.098 154.049 94.4738 -262.48 486.229
98 1 -22.2706 -57.5778 -15.0098 912.217 756.045 1068.04 26.8647 190.232 -118.801 -801.445 475.476
2596 1 -19.9113 -57.3427 -20.4326 767.734 627.18 949.18 71.2267 44.4616 21.9595 -816.376 317.455
2599 2 -20.4496 -56.2257 -19.4264 -576.072 -295.233 -510.12 4.96044 9.44445 132.077 -256.882 342.598
103 2 -24.3938 -56.2409 -20.0141 -606.291 -474.357 -603.818 -41.8489 121.582 68.8443 -260.154 284.439
104 2 -22.5822 -55.9975 -15.224 -443.757 -140.41 -443.6 -160.535 71.7623 -148.759 -264.372 501.122
2505 2 -18.4156 -60.1784 -18.0782 224.774 -339.071 -579.336 -26.3663 44.7069 19.9363 -271.024 721.384
105 2 -23.8247 -55.4812 -17.5523 -529.412 -558.093 -574.982 -136.478 40.0618 22.9075 -268.207 252.706
2602 2 -18.0881 -58.1434 -14.6748 -425.419 -600.852 -624.622 6.44226 2.33378 23.9894 -256.995 193.337
5136 2 -11.4464 -53.6476 4.06809 -576.678 -587.955 -426.883 51.8552 116.605 102.5 -241.478 323.467
2724 2 -16.5096 -48.9127 -2.91779 -557.852 -567.572 -236.644 58.4499 51.1251 115.056 -254.281 405.21
2504 2 -16.5248 -61.7649 -17.0528 -361.645 -99.746 -421.321 89.8208 -105.683 -197.532 -270.279 512.394
5000 2 -12.3244 -61.5891 -16.9139 -362.79 135.462 -608.074 19.5046 77.056 -205.968 -269.61 759.51
4999 2 -13.671 -61.1606 -19.9848 -474.02 -421.648 -488.223 24.3126 -32.9522 231.245 -271.881 411.269
2499 1 -16.7596 -60.2579 -17.6468 977.187 763.838 1078.76 -102.599 176.379 -78.5377 -786.195 470.019
2502 2 -15.7001 -59.9543 -18.7852 -81.6495 -403.74 -698.797 23.7768 -125.861 -25.4039 -278.254 580.509
4995 1 -12.1278 -59.9923 -17.1422 829.132 925.337 1181.48 -98.8268 -277.161 -129.524 -801.217 639.995
4993 1 -14.1816 -59.7888 -19.3093 884.903 684.156 1037.83 -58.6483 -94.0402 -121.792 -788.459 419.207
5001 2 -13.201 -59.3523 -18.1536 -354.644 -404.274 -599.78 17.864 140.557 -65.2524 -269.724 351.268
2508 2 -16.5618 -59.1952 -16.4767 -574.291 -331.171 -512.97 -9.44425 14.8685 158.98 -263.179 353.149
5004 2 -12.2156 -59.186 -15.7379 -508.107 -36.7373 -434.411 60.5496 74.6343 319.966 -258.485 726.449
5099 2 -14.13 -58.717 -20.5595 -519.47 -247.005 -403.276 57.4972 -61.7661 -188.066 -260.22 428.426
2594 1 -16.6918 -58.0038 -15.4047 789.496 940.366 845.035 72.1093 -13.1721 -234.599 -822.456 445.754
5090 1 -11.9539 -57.7842 -14.9017 930.415 1175.29 1105.74 -57.4463 -92.1111 -193.894 -814.136 442.613
2600 2 -16.6482 -56.5927 -16.2223 -489.189 -117.402 -331.911 -50.0162 8.00832 -218.695 -255.043 505.637
5096 2 -12.4369 -56.3967 -15.6937 -564.87 -44.6017 -559.465 -76.0402 47.7085 -41.1841 -251.047 545.123
5095 2 -14.1194 -56.152 -20.12 -562.811 -604.715 -756.503 49.8255 -40.8917 -50.0839 -253.661 226.154
5093 2 -15.5191 -58.0521 -14.3409 -431.018 -629.78 -593.495 -2.03062 18.0923 146.547 -252.817 314.696
2595 1 -17.0647 -55.3809 -17.2656 889.269 795.546 1514.26 41.7085 109.98 -85.1611 -813.435 721.968
7589 2 -10.3654 -57.7036 -14.6892 -56.1722 -472.848 -543.325 -58.2167 57.8427 23.0508 -258.959 479.323
4998 2 -10.6468 -59.7018 -17.8345 0.615221 -499.209 -629.432 130.622 -168.008 -22.4743 -256.825 685.021
5229 2 -13.1877 -50.2278 2.7595 -88.238 -607.866 -396.344 54.4386 255.248 40.0983 -241.205 643.437
2601 2 -18.6299 -55.6003 -17.7099 52.9011 -368.387 -624.372 -63.3778 55.5992 7.08477 -262.045 610.189
2593 1 -20.0769 -55.1215 -18.2946 857.626 785.221 1003.22 -30.6498 232.287 -22.5125 -814.37 450.77
97 1 -24.6328 -55.1768 -18.8727 897.872 829.639 740.278 194.439 -47.5849 -179.295 -809.503 485.171
102 2 -21.2841 -55.0068 -17.2927 -314.317 -535.677 -665.974 -35.0464 -59.1543 18.5137 -262.776 331.709
99 1 -22.7155 -55.035 -16.5377 828.033 808.442 1121.19 125.037 -159.62 -101.883 -801.244 496.535
203 2 -24.1445 -53.7618 -19.5033 -458.261 -342 -464.376 14.883 -107.088 -168.91 -261.69 367.321
2699 2 -19.9127 -53.694 -18.9907 -558.369 -379.731 -592.934 0.86232 27.4767 -79.7147 -258.016 246.194
108 2 -22.9446 -53.47 -16.0855 -500.98 -394.173 -696.752 -80.3136 34.4575 131.906 -261.105 381.778
196 1 -24.2753 -52.6388 -20.6326 844.972 623.257 1180.96 119.657 173.772 -0.986477 -819.066 608.349
2704 1 -19.5283 -52.4051 -14.3646 862.865 797.773 1016.08 -57.5497 -76.037 77.3482 -819.541 287.947
2692 1 -19.623 -52.5525 -20.054 1086.01 634.974 1120.31 -82.6404 13.5405 159.313 -818.407 563.26
2693 2 -21.0293 -52.1969 -14.8169 -379.165 -393.756 -584.53 -48.3976 124.317 -42.6626 -262.398 313.437
194 1 -22.5068 -52.1247 -15.4703 674.481 496.101 1359.89 -0.2549 58.0199 -113.776 -812.14 820.242
199 2 -23.9723 -51.1648 -20.0883 -442.392 -275.041 -663.168 -28.6373 -58.1617 81.902 -256.152 382.659
2695 2 -19.8084 -51.106 -19.3951 -516.866 -318.446 -628.453 -15.556 -22.8305 88.358 -254.604 315.712
200 2 -22.5142 -51.0284 -16.7131 -418.851 -451.253 -365.58 -4.18294 -16.7164 -184.918 -258.106 330.285
2689 1 -19.6152 -49.5527 -19.013 933.76 613.777 1131.7 0.838726 -86.5796 151.356 -814.924 544.168
198 2 -20.867 -49.2702 -17.9439 -56.5987 -511.711 -349.149 132.979 -305.06 -120.085 -249.564 731.481
193 1 -24.4217 -49.6751 -19.6206 867.301 728.863 1043.43 -103.575 140.237 219.672 -809.404 557.241
201 2 -23.4524 -49.2507 -18.3806 -229.824 -530.898 -329.563 27.9725 190.48 -49.756 -257.578 434.957
195 1 -22.3245 -49.5569 -17.2449 1023.4 883.39 807.742 -5.8688 -20.0708 -20.0371 -824.286 196.042
2698 2 -18.4676 -52.1392 -15.5971 -481.716 -680.578 -452.416 154.531 -137.216 72.9607 -251.641 436.262
202 2 -23.5386 -51.7271 -14.3104 -425.895 -494.254 -538.56 6.7089 -102.543 -54.5956 -255.636 224.247
2782 2 -18.1101 -52.7232 -20.6707 -321.983 -411.9 -634.188 -28.8513 -123.394 7.2742 -253.198 354.709
2697 2 -18.1786 -49.489 -18.2923 -248.614 -490.223 -539.576 -86.2644 110.671 -37.4156 -259.886 368.787
2598 2 -16.0575 -55.3366 -18.5531 -272.329 -389.573 -466.343 23.3997 -233.262 27.1584 -260.046 442.414
5097 2 -13.5646 -55.3365 -17.7385 -251.205 -481.382 -624.664 50.2531 112.03 93.367 -251.522 421.748
5091 1 -12.331 -55.1797 -16.7106 938.924 636.808 992.625 11.565 3.48181 -40.6673 -832.902 340.266
5188 1 -14.1205 -52.6199 -20.8033 728.194 751.397 1240.84 -46.0767 32.7815 104.855 -828.419 542.239
5094 2 -10.9118 -55.2426 -17.4528 -238.501 -526.563 -659.541 104.425 -52.9053 -58.3921 -253.39 436.243
5089 1 -14.5369 -55.1506 -19.021 873.215 537.174 944.725 -127.726 131.68 -201.349 -826.983 603.865
2604 2 -16.9685 -53.9417 -16.5172 -532.525 -46.3701 -627.302 19.5059 17.9068 123.733 -251.207 582.613
5100 2 -12.3243 -53.7704 -15.9983 -579.387 -467.215 -605.918 31.8098 4.48014 37.3759 -252.599 153.458
5195 2 -14.2921 -53.7229 -19.6642 -530.202 -516.847 -710.535 183.955 -87.1749 -72.9 -247.725 418.767
2690 1 -17.0486 -52.3489 -16.1675 819.01 875.911 1046.97 41.3058 188.609 -96.2085 -827.638 426.428
5189 2 -15.8961 -52.1461 -14.9932 -342.34 -660.684 -539.064 -51.1265 91.8304 61.5504 -243.618 349.174
5186 1 -12.131 -52.2882 -15.4281 660.472 836.4 1057.48 -109.303 24.7829 -50.9592 -829.283 405.209
2696 2 -16.6407 -51.3391 -17.3409 -508.484 -399.603 -657.917 62.0719 -55.5304 -44.5862 -255.03 277.902
5192 2 -12.0685 -51.1731 -16.5605 -498.929 -279.282 -520.416 30.575 47.0922 -134.487 -254.329 342.262
5191 2 -13.8089 -51.1569 -20.2518 -534.143 -470.974 -596.61 -86.0818 -46.9392 49.5538 -255.366 219.192
2691 1 -16.6726 -49.8336 -17.8193 873.983 756.989 1093.99 -45.047 38.2857 62.5296 -821.571 331.729
2694 2 -15.5905 -49.7186 -19.0221 -249.099 -554.883 -452.459 -50.7235 -160.674 79.994 -253.136 420.759
5187 1 -11.9792 -49.6879 -17.2281 923.957 1101.8 909.534 23.2288 101.224 -139.927 -831.405 354.254
5185 1 -14.0926 -49.7272 -19.6356 889.737 614.018 868.502 23.2177 31.5295 154.416 -834.13 383.078
5193 2 -13.0588 -49.4771 -18.435 -323.629 -549.279 -425.137 -55.0692 112.057 -67.7024 -250.5 314.381
7685 2 -10.724 -52.3451 -14.6654 -296.841 -528.315 -586.221 -59.7928 62.023 -19.7968 -258.053 306.233
5194 2 -13.3804 -51.8912 -14.5092 -498.032 -557.998 -606.507 -20.0267 -28.4431 88.0061 -249.852 189.006
5190 2 -10.5299 -49.3669 -17.8657 -321.627 -482.998 -468.802 127.342 -204.897 -63.7505 -247.052 459.065
9928 1 -10.2532 -67.8964 1.37328 1497.72 925.154 1144.81 -66.7725 -65.6747 -263.005 -909.086 695.802
7308 2 -10.4389 -69.4035 -13.802 -686.727 -192.982 -870.571 111.102 238.281 324.735 -274.293 944.498
2512 1 -19.6346 -62.6052 -14.1397 765.084 773.527 962.438 98.02 -55.2286 -157.696 -806.521 387.21
4906 2 -18.5816 -69.104 -14.042 52.8072 -339.883 -1015.88 -279.596 75.2904 0.877629 -268.044 1062.15
4913 2 -21.2162 -68.2984 -7.3675 -161.664 -689.277 -99.4813 -14.9372 309.35 -36.735 -228.654 779.013
2422 2 -23.784 -67.2894 -7.81506 31.5359 -391.498 -692.63 -76.1456 -190.617 32.0829 -260.472 725.612
2414 1 -22.2253 -67.2201 -8.18028 856.98 1169.66 815.782 -58.0176 23.4278 -92.5528 -806.376 387.027
2328 2 -22.0671 -66.7357 -9.70019 -652.275 -548.867 -431.017 -97.4584 -123.425 -294.886 -255.341 609.785
4915 2 -19.3703 -66.6521 -13.8261 -499.515 -363.291 -189.231 -23.4739 -47.5647 336.442 -276.143 648.526
2419 2 -25.031 -66.365 -13.5607 -453.875 -401.073 -219.21 -29.8564 130.875 137.968 -282.48 395.764
2418 2 -20.7718 -65.6278 -11.7868 -422.351 -478.183 -259.443 -70.6742 -256.85 67.9684 -261.539 515.278
2421 2 -23.3454 -65.4434 -11.6246 -226.678 -575.794 -241.35 53.8935 284.301 87.5497 -253.55 625.431
2415 1 -22.0013 -65.5154 -10.6871 1096.28 1046.35 873.099 43.5944 122.477 242.937 -819.348 518.573
4909 1 -19.4721 -65.4272 -12.6671 1004.07 720.787 997.816 84.5016 95.7606 8.92111 -801.492 357.334
2413 1 -24.8146 -65.3466 -12.3198 1055.64 977.042 804.574 178.332 -26.0214 -99.8617 -816.53 420.516
2424 2 -21.8353 -64.2211 -9.6793 -571.71 -337.248 -106.366 -11.9404 36.4657 392.769 -248.109 793.493
2519 2 -19.553 -64.1062 -13.5245 -504.868 -363.753 -519.557 -75.8998 34.7032 -79.1429 -265.284 248.773
23 2 -24.8774 -63.8291 -12.8578 -593.491 -546.473 -597.339 -9.71991 -34.5844 123.198 -257.695 227.621
22 2 -23.4531 -63.6613 -7.72941 -120.922 -424.214 -312.806 160.339 -378.822 -102.31 -237.596 780.804
14 1 -21.9564 -63.2517 -8.35509 1295.93 1193.33 953.103 239.128 -56.2605 -140.371 -841.518 577.095
4918 2 -18.7167 -67.448 -7.32278 -349.465 -351.997 -667.905 -144.86 -163.633 10.9955 -267.961 494.214
4917 2 -18.1791 -65.4191 -11.6659 -360.589 -520.823 -231.135 -13.1021 201.833 111.419 -263.264 472.38
2420 2 -21.2512 -66.1635 -7.44675 -15.4401 -958.917 -505.647 -83.3316 103.842 -6.51419 -231.992 849.271
16 1 -25.0467 -62.3676 -13.3746 831.06 554.397 910.504 -9.65164 150.851 -202.15 -828.242 544.036
2513 2 -20.8863 -63.3103 -7.21202 -599.12 -689.147 -174.893 -152.383 134.683 20.6678 -245.38 592.982
7409 2 -16.0756 -68.3651 -7.7049 21.2974 -823.4 -364.469 25.1127 209.247 -62.9234 -236.679 825.589
7414 2 -13.5665 -67.2065 -7.78777 212.141 -333.959 -805.155 46.0443 -55.3953 -25.1652 -254.456 891.649
4910 1 -17.2965 -67.3425 -8.03788 666.194 1047.28 937.76 38.7442 77.6225 93.6397 -800.86 405.422
5008 1 -14.6597 -63.1245 -13.8936 946.08 746.09 947.737 33.512 -127.569 165.597 -809.04 418.076
7406 1 -11.9384 -67.0846 -7.99751 743.668 1080.49 1032.29 -137.728 -184.352 57.4518 -823.699 517.981
7411 2 -14.5113 -67.0874 -12.7871 -587.301 -170.901 -564.502 -97.8817 26.871 278.515 -265.109 654.244
7320 2 -11.7718 -66.8416 -9.56583 -610.047 -401.465 -255.047 -38.1539 19.3261 -196.306 -245.47 465.383
4824 2 -17.5228 -66.8124 -9.53572 -595.321 -221.305 -328.914 -24.2624 -133.55 -301.431 -256.671 662.627
4916 2 -16.2297 -66.2592 -7.41591 3.35999 -859.949 -555.341 -10.2622 40.7385 -37.1999 -228.418 764.568
7405 1 -14.5325 -65.6126 -12.0829 774.75 803.073 921.367 53.5387 -44.9303 -102.679 -810.041 253.832
4914 2 -15.6967 -65.4541 -11.005 -327.092 -464.259 -315.406 -69.3127 -305.599 58.0994 -260.655 570.321
4911 1 -17.2182 -65.4368 -10.3803 1125.63 1238.1 830.407 30.8262 21.0882 125.684 -810.923 429.63
7407 1 -11.759 -65.5105 -10.5425 846.22 1161.04 809.586 -9.4636 32.2239 -247.765 -833.564 547.298
7413 2 -13.133 -65.3514 -11.3639 -488.233 -498.147 -473.186 -29.9176 197.516 74.8845 -254.066 370.163
4920 2 -17.5389 -64.1692 -9.34592 -508.716 -106.597 -4.40435 -32.3443 -153.925 434.598 -251.385 924.164
5015 2 -14.6724 -64.5361 -13.2466 -601.677 -414.548 -678.562 29.1352 -65.0441 120.21 -267.602 337.5
7416 2 -11.4754 -64.2948 -9.54501 -514.118 -492.261 -500.738 117.362 170.267 289.163 -240.215 616.039
5014 2 -13.1099 -63.531 -7.65787 -258.923 -518.442 -506.847 112.046 -257.578 43.1369 -235.968 553.859
2510 1 -17.3372 -63.1314 -8.0371 1124.17 942.908 1058.94 -132.316 231.572 -32.4261 -845.157 491.772
5006 1 -11.6351 -63.2399 -8.29519 953.524 1075.25 1276.53 -27.4567 -126.898 -278.384 -852.249 602.409
5009 2 -15.8186 -63.2592 -7.48636 -162.759 -643.673 -501.583 34.7818 161.566 147.523 -237.437 574.773
9905 2 -10.8349 -68.0339 -7.31251 -40.8269 -902.964 -493.18 149.158 313.981 70.1733 -223.277 967.048
7420 1 -14.9912 -67.3429 -7.04671 701.153 1049.82 1051.63 -134.294 -79.3074 -110.646 -815.009 481.564
2727 1 -17.2428 -50.2461 4.1123 1036.37 1234.4 759.969 -91.1973 -55.2288 105.955 -840.295 487.987
7412 2 -11.1098 -65.9483 -7.20611 116.64 -1102.49 -599.161 32.9405 226.983 5.91008 -220.678 1133.1
7505 2 -10.6468 -63.2335 -7.01656 -706.56 -750.637 -319.424 -79.1087 134.572 162.926 -239.069 567.114
106 2 -23.389 -58.1743 -14.0791 -243.122 -532.597 -475.03 -64.6257 -196.915 104.171 -256.832 481.515
10 2 -23.6762 -61.8284 -13.9115 -461.208 -583.885 -680.004 -71.0575 -94.3787 71.3015 -253.164 305.289
2608 1 -19.306 -57.8504 -13.698 898.841 691.515 1007.06 77.0875 45.0598 -316.522 -820.173 633.725
20 2 -21.8529 -61.705 -9.02821 -615.334 -104.945 -520.675 10.4082 -102.745 -128.937 -244.211 550.467
2515 2 -19.429 -61.515 -13.0245 -643.701 -405.208 -492.812 -114.115 -102.759 171.467 -255.868 450.12
21 2 -23.7645 -60.6697 -10.469 -479.777 -489.923 -557.781 -89.295 31.1604 34.1972 -248.973 189.045
18 2 -21.2097 -60.6974 -11.2602 -300.577 -524.523 -656.429 102.682 -105.217 -1.81648 -252.741 402.422
15 1 -22.2141 -60.5832 -10.0556 949.797 820.477 865.335 145.632 145.699 1.53129 -837.456 374.503
2517 2 -18.6006 -60.6958 -10.661 -260.129 -506.324 -567.859 -27.5282 145.402 156.09 -250.515 467.267
2509 1 -19.6944 -60.4583 -11.8142 1152.8 933.17 996.434 95.1654 -27.0721 -280.99 -818.185 551.888
13 1 -25.107 -60.1936 -11.1764 835.452 911.916 971.142 23.6225 94.7258 -64.985 -839.751 234.83
24 2 -21.9449 -59.0169 -9.60356 -590.877 -239.743 -711.405 39.9964 -4.26313 -90.9179 -247.853 458.035
2615 2 -19.3683 -59.014 -12.5464 -508.614 -109.361 -337.021 133.513 -108.594 -206.508 -253.446 580.629
119 2 -24.9221 -58.8532 -12.0048 -556.186 -480.202 -525.567 -44.8095 22.0809 -7.20096 -254.993 109.665
112 1 -24.8323 -57.9021 -13.2751 977.032 802.773 910.482 -60.7698 -105.29 -42.5519 -821.105 270.125
124 1 -24.7328 -57.6993 -7.51316 953.172 1081.81 842.823 89.4066 224.392 97.4461 -845.552 496.43
110 1 -22.1122 -57.5316 -9.139 1141.63 832.683 1015.9 60.2039 38.8683 -201.295 -830.958 457.577
118 2 -23.6826 -57.3751 -8.62948 -293.078 -616.474 -494.434 -16.0968 -210.513 43.4546 -247.305 468.403
2609 2 -21.212 -57.4364 -7.79907 -523.75 -624.969 -308.384 -80.4613 129.691 -25.3046 -239.063 387.594
116 2 -21.7236 -56.3442 -10.2019 -464.936 -207.271 -348.536 45.0717 -73.049 -170.329 -256.003 398.857
2611 2 -19.0421 -56.3857 -13.1991 -610.153 -455.465 -596.322 28.8589 65.2528 64.3276 -257.287 222.86
115 2 -24.8347 -56.3698 -12.8258 -568.004 -500.797 -586.556 -12.866 46.0359 110.566 -253.799 222.794
2614 2 -18.6456 -57.3178 -7.9191 -422.687 -579.522 -501.757 15.8902 -43.1748 79.8333 -242.345 209.567
5225 2 -15.8622 -53.1263 6.22185 -157.474 -618.689 -521.151 58.906 142.581 20.2557 -239.089 499.876
131 2 -24.692 -59.299 -7.23655 -688.089 -204.03 -580.241 -6.77235 -176.31 -51.5103 -239.819 543.225
7601 2 -10.8658 -57.1705 -8.17224 -743.402 -684.471 -529.632 -6.95381 91.9919 6.97805 -236.305 249.502
5012 2 -11.551 -61.8299 -9.07775 -483.449 -316.978 -351.619 23.6287 23.2366 -229.697 -247.516 429.794
5011 2 -14.6101 -61.8663 -12.7887 -546.91 19.1952 -364.856 -19.7346 -71.9329 291.849 -258.076 723.033
2516 2 -17.4601 -61.6448 -8.62802 -697.1 -204.582 -545.833 108.383 -139.213 -60.6563 -242.224 543.482
2514 2 -15.9326 -60.8328 -10.6503 -153.973 -511.796 -313.484 -102.972 -244.974 181.665 -250.707 638.167
5013 2 -13.1879 -60.77 -10.9101 -35.9195 -534.313 -495.405 15.9941 206.125 48.8458 -245.745 604.901
5010 2 -10.5663 -60.7473 -11.3677 -624.244 -500.399 -302.216 105.601 -221.573 -36.9399 -246.147 513.8
5005 1 -14.6469 -60.7165 -11.6749 1161.88 786.422 1092.1 -70.1344 -37.3258 -131.91 -830.394 436.777
2511 1 -17.2622 -60.5052 -9.76229 1162.59 820.531 992.637 110.665 -75.2742 -148.225 -833.38 455.417
5007 1 -11.7084 -60.6784 -10.2231 1053.91 1083.34 1194.37 -24.7344 -9.89941 -121.281 -837.325 250.436
5016 2 -11.6411 -59.1162 -9.63003 -523.577 -125.156 -610.871 -33.5699 38.2871 129.061 -241.44 508.811
5111 2 -14.7672 -59.2213 -12.2367 -617.004 -56.7653 -674.975 63.2066 -39.5234 97.2041 -251.19 628.27
2520 2 -17.2046 -58.9861 -9.25813 -661.308 -580.078 -605.564 -78.3708 -40.0216 -28.1193 -252.939 175.445
5098 2 -12.9786 -57.8801 -13.6388 -155.292 -640.052 -514.456 106.671 -201.122 32.3631 -250.503 590.348
5104 1 -14.5021 -57.8877 -13.1244 904.355 943.318 960.219 -3.05386 5.12313 -216.261 -829.282 377.988
5102 1 -11.8858 -57.5779 -9.30568 705.819 858.097 961.551 -67.7751 -95.3798 -78.8793 -849.187 330.731
2606 1 -17.2961 -57.545 -8.74465 1139.22 518.81 1004.93 -55.277 102.72 -209.736 -839.821 701.724
5110 2 -13.2862 -57.3621 -8.61724 -688.507 -578.552 -551.882 7.66673 -61.914 48.755 -244.56 185.853
5105 2 -15.8617 -57.3816 -7.92274 -159.247 -639.638 -569.929 -3.51038 59.121 37.6821 -237.691 465.757
5108 2 -11.6738 -56.6358 -10.5852 -506.083 -233.068 -598.104 84.8555 -8.07439 -43.2407 -244.586 368.15
2612 2 -17.2593 -56.4135 -9.90045 -608.998 -395.461 -492.792 -36.8075 52.6307 -68.4963 -249.843 246.449
5107 2 -14.6928 -56.3861 -12.5599 -595.056 -114.716 -672.834 111.724 74.9183 4.72517 -251.56 573.138
5116 1 -14.3468 -57.596 -7.46994 911.797 1097.87 888.855 26.6251 63.8778 -102.253 -852.725 291.814
111 1 -21.8028 -54.9062 -10.9482 619.673 889.392 948.941 -24.7251 94.7394 -219.981 -823.624 516.034
2605 1 -19.2318 -54.8902 -12.652 720.976 711.352 993.149 113.471 -38.2262 -103.408 -816.354 389.718
114 2 -20.6551 -54.7873 -12.0396 -721.243 -492.576 -607.033 13.652 5.43724 37.4815 -260.036 209.95
109 1 -24.6984 -54.9204 -12.1992 1010.25 658.744 1013.78 110.824 -54.6067 -81.3303 -830.341 436.401
117 2 -23.2062 -54.724 -11.6157 -427.231 -487.63 -613.007 2.43399 -49.4555 89.4578 -258.594 241.461
2711 2 -19.1168 -53.8434 -13.91 -525.055 -445.588 -531.603 -50.5202 67.9858 4.8765 -254.457 168.739
120 2 -21.6206 -53.8341 -9.77031 -596.719 -547.301 -487.382 13.5607 -36.8756 139.29 -251.841 268.011
215 2 -24.9357 -53.7662 -13.2577 -575.545 -269.941 -566.585 -61.1385 -6.50536 -53.1963 -250.01 332.515
214 2 -23.3572 -52.9754 -8.03075 -391.897 -605.585 -506.83 58.3717 -63.1343 49.3931 -246.483 252.608
206 1 -21.8304 -52.7981 -8.59304 1052.93 905.155 667.395 -11.9284 38.4672 -176.449 -830.816 460.185
208 1 -24.9713 -52.1849 -13.7315 799.591 1150.15 664.964 173.094 -61.6792 -110.867 -816.875 571.298
212 2 -21.6959 -51.3224 -9.16159 -625.926 -580.116 -524.005 18.7248 -47.1387 20.898 -253.773 129.791
2707 2 -19.283 -51.2927 -13.1884 -672.151 -286.156 -450.882 66.4893 -15.5374 153.504 -252.84 444.096
211 2 -25.1546 -51.2918 -12.4045 -550.848 -608.358 -300.513 -40.8909 82.0433 156.347 -252.911 422.983
213 2 -23.5183 -50.2588 -10.6117 -469.016 -522.006 -652.008 104.827 -14.8552 153.307 -250.884 361.572
210 2 -20.9395 -50.2561 -11.4605 -195.009 -528.003 -386.064 11.8242 -178.467 46.8851 -251.364 431.662
2701 1 -19.407 -50.2203 -12.0293 1042.06 887.988 605.984 -61.6666 -104.087 -110.862 -827.119 476.966
207 1 -21.9289 -50.1327 -10.1666 966.244 605.223 1126.91 28.549 -8.55385 -142.889 -824.493 527.325
205 1 -24.9056 -50.2014 -11.2609 483.114 977.873 905.709 17.6885 -46.0742 -144.335 -836.198 533.006
2705 2 -20.7688 -53.0734 -7.42701 -295.601 -690.393 -512.421 -18.7905 19.767 18.9304 -251.301 347.245
2613 2 -18.1667 -54.5016 -11.545 -430.833 -453.253 -428.914 -54.6503 115.744 45.4071 -257.832 236.4
2709 2 -18.3857 -50.5168 -10.8816 -454.859 -620.27 -608.058 55.6536 -11.6845 86.0906 -258.47 239.638
5106 2 -10.3061 -55.063 -12.1133 -222.98 -558.699 -485.551 -14.6114 -149.295 89.3798 -253.225 430.087
2634 2 -15.8214 -54.7914 2.95892 -42.5611 -606.875 -322.507 81.2633 -278.317 -45.8521 -238.645 705.225
5103 1 -11.4729 -55.0825 -11.0752 797.801 1151.4 1041.1 -42.8684 174.129 -20.0683 -830.394 442.585
5101 1 -14.4517 -54.874 -12.0723 744.941 962.072 1272.75 -36.2761 -30.2267 -280.178 -826.323 673.284
5109 2 -12.9492 -54.6705 -11.6586 -180.251 -589.908 -551.115 -1.5958 16.7474 89.4277 -256.165 422.223
2607 1 -17.0881 -54.9173 -10.3991 878.942 944.849 904.722 -64.5502 52.3284 -194.339 -831.917 370.577
2610 2 -15.6125 -54.7024 -10.9534 -230.101 -630.526 -640.928 69.3283 -66.6482 16.9291 -247.104 439.566
5112 2 -11.2136 -54.116 -9.77124 -497.441 -373.746 -216.353 -21.0526 -72.738 305.114 -246.049 596.68
2616 2 -17.201 -53.9463 -9.11718 -591.659 -518.649 -407.612 48.321 35.8023 184.835 -246.627 372.972
5207 2 -14.767 -53.6978 -13.2564 -524.853 -250.495 -388.351 -25.6058 1.72383 -116.546 -247.616 314.928
5206 2 -13.0397 -53.1032 -8.02927 -400.672 -598.328 -393.567 -45.3967 -167.603 140.453 -247.144 436.072
5201 2 -15.6324 -52.9111 -7.30652 -367.102 -513.1 -533.558 -36.6599 179.01 38.1622 -246.139 359.521
5198 1 -11.5915 -52.98 -8.6676 964.837 1069.16 775.557 -38.3518 -50.5193 -140.086 -848.102 370.675
5200 1 -14.7874 -52.2587 -13.8914 726.72 1019.74 795.105 24.2946 -30.591 -35.8774 -839.681 280.963
2702 1 -17.1035 -52.8663 -7.94311 676.169 875.483 928.883 -81.8898 95.3869 -123.15 -843.955 382.273
5204 2 -11.4731 -51.5803 -9.43955 -576.545 -315.53 -504.084 -8.14601 18.9122 -43.4265 -244.487 247.781
2708 2 -17.438 -51.4737 -8.63369 -555.297 -482.407 -629.268 -11.1818 93.3549 22.9676 -246.839 210.427
5203 2 -15.1206 -51.1456 -12.7144 -574.873 -572.827 -542.803 -111.739 -99.5519 72.299 -243.338 289.546
2706 2 -15.8413 -50.4236 -10.2882 -388.31 -528.903 -539.879 -62.5893 -58.8877 146.382 -254.253 328.434
5205 2 -13.2641 -50.526 -11.0242 -169.213 -522.482 -540.879 70.2388 80.318 171.618 -251.045 504.131
5199 1 -11.7395 -50.3675 -10.4829 835.154 1161.69 1066.97 73.9619 203.003 -134.125 -834.423 527.899
5197 1 -14.7852 -50.2626 -11.487 779.552 824.641 887.584 4.38328 48.4116 -264.258 -837.576 474.783
2703 1 -17.3225 -50.3011 -9.71951 856.363 1025.96 854.13 -92.7408 -45.1862 -55.5011 -823.21 265.171