ITEM: TIMESTEP
1300000
ITEM: NUMBER OF ATOMS
29952
ITEM: BOX BOUNDS pp pp pp
-2.5615833775063237e+01 3.5601128117061187e+01
-1.0467080831046601e+02 1.1465610264466476e+02
-2.1035324467156940e+01 3.4903177627851115e+01
ITEM: ATOMS id type x y z v_StrAtomXX v_StrAtomYY v_StrAtomZZ v_StrAtomXY v_StrAtomXZ v_StrAtomYZ c_PEAtom v_VMS
4812 2 -16.7225 -70.4293 -15.5443 -413.85 -155.97 -888.53 -290.429 -102.233 183.942 -262.383 894.505
7478 1 -10.8203 -70.5219 -15.2449 564.033 290.576 1951.48 27.6997 -262.347 93.8328 -738.766 1616.91
4982 1 -16.1208 -70.6474 -17.0284 809.663 394.402 1555.81 287.411 -17.5384 29.0006 -826.361 1135.91
7392 2 -12.1405 -71.4216 -15.139 364.141 -385.228 -934.486 -152.467 119.403 -30.5765 -264.962 1179.05
4896 2 -16.3482 -71.8486 -17.9374 -345.599 35.3739 -477.978 -37.2411 23.1264 10.3496 -164.365 468.17
7396 1 -13.3626 -70.3829 -15.4962 473.436 220.279 2296.71 20.0076 108.729 19.7585 -736.432 1971.76
7481 2 -14.5211 -70.3647 -16.6661 119.235 -96.2909 -633.777 -120.509 503.3 -130.212 -270.214 1142.61
4904 2 -18.4221 -68.2711 -15.9631 -211.512 -527.28 -120.849 -389.181 73.5416 -105.695 -310.3 800.426
2400 2 -19.6016 -68.4728 -18.4626 353.324 -472.833 -232.803 -60.839 558.979 -99.6152 -275.564 1232.92
4901 2 -20.9709 -68.2631 -15.2105 26.424 -625.329 -571.1 -32.0371 124.755 -61.6276 -282.454 673.456
4912 1 -19.5321 -68.0157 -14.5917 430.552 922.722 1387.88 383.482 208.714 -29.0936 -734.396 1123.36
2316 2 -21.9572 -67.9338 -17.5546 -513.818 -547.651 -379.485 -88.4938 -257.613 -104.224 -265.549 528.119
2494 2 -22.0928 -68.0199 -20.2355 124.417 -331.365 -149.08 -200.722 563.912 -273.243 -279.788 1206.95
2410 2 -23.6869 -67.7223 -15.4907 -69.7361 -492.043 -579.306 -208.78 -195.07 -130.619 -279.631 720.359
2486 1 -21.0859 -67.8387 -18.9919 1203.77 788.078 1129.38 27.095 -72.8141 38.2637 -764.751 412.2
2402 1 -22.1821 -67.6159 -16.0474 536.841 717.807 952.503 197.999 177.852 261.637 -784.471 740.384
2416 1 -25.1199 -67.4907 -14.8324 343.889 751.075 1223.33 -225.651 -18.2084 103.496 -763.693 875.786
4985 2 -20.6453 -66.2586 -18.9813 -597.829 -356.278 -618.028 37.9567 28.6276 1.02569 -274.818 265.364
2407 2 -23.6486 -65.9911 -20.1475 -422.011 -452.924 -335.179 -124.108 -126.247 149.111 -276.332 414.615
2408 2 -21.8327 -66.053 -15.9205 -475.2 -563.71 -765.967 -68.1257 -38.3471 -64.6086 -262.597 312.252
2401 1 -24.394 -65.0957 -19.0014 584.519 975.245 882.878 80.4094 87.7375 192.198 -784.927 527.655
2409 2 -23.5157 -65.0802 -17.6531 -654.221 -570.473 -487.104 -150.068 -46.7633 -142.477 -272.421 394.926
4897 1 -20.3724 -64.7038 -18.8028 617.439 667.276 865.263 -1.21395 132.209 272.791 -773.131 572.047
2403 1 -22.3794 -64.7219 -16.619 654.96 414.383 826.578 -35.539 200.037 -152.597 -786.35 567.722
4905 2 -18.7613 -64.6095 -18.6048 -336.178 -536.622 -659.195 14.0678 -36.1608 -33.8537 -282.811 296.185
2406 2 -21.2156 -64.2779 -17.5542 -597.131 -691.572 -667.414 -111.504 -18.1002 49.0471 -275.83 229.608
11 2 -24.5157 -63.6703 -19.7052 -393.437 -517.591 -524.271 -18.118 -27.3332 -172.73 -276.22 330.183
2507 2 -20.6932 -63.8286 -20.0843 -527.045 -243.7 -411.54 128.726 -69.4236 -185.697 -275.554 478.035
4900 1 -18.1507 -68.2654 -17.6707 1042.29 550.334 1074.5 153.818 -12.2667 528.522 -757.89 1080.9
2412 2 -22.8913 -63.711 -15.5546 -480.749 -612.87 -753.39 46.3778 -11.7104 65.1782 -265.388 274.547
4990 2 -16.9746 -69.3408 -17.6358 -101.77 -407.707 -736.246 -285.716 237.811 -234.665 -261.955 939.049
7486 2 -12.0217 -69.4037 -15.9752 94.2061 -86.6909 -1257.11 -214.729 -40.6286 -150.173 -306.047 1351.02
4898 1 -17.3142 -69.1052 -14.8596 244.982 884.382 1507.71 331.524 -45.35 34.9129 -734.558 1239.14
7397 2 -16.0514 -68.2069 -14.518 240.792 -490.159 -686.497 176.668 110.177 -49.4154 -286.4 923.974
7394 1 -11.9999 -67.7149 -15.8295 799.483 318.77 1420.22 -2.87096 -95.872 519.525 -758.097 1323.67
7402 2 -13.2374 -67.4425 -14.7664 131.086 -508.698 -703.214 -4.70548 -188.414 168.634 -271.536 873.777
7400 2 -12.3213 -66.9061 -17.0748 -484.745 -267.798 -795.4 -78.152 163.624 -315.915 -275.25 780.395
4903 2 -17.608 -66.8069 -17.8398 -434.32 -332.657 -780.896 36.0985 -24.9365 -169.543 -280.231 507.635
7401 2 -13.9085 -66.0716 -19.0402 -215.749 -568.309 -345.387 74.1189 284.108 -62.3485 -276.767 604.727
7395 1 -12.5891 -65.7386 -18.199 550.148 1082.26 1042.5 79.8798 -42.1845 566.762 -783.723 1118.8
7398 2 -11.3131 -65.7675 -19.1281 -298.786 -617.884 -655.489 -135.512 -63.346 -101.666 -273.688 461.924
7393 1 -15.0238 -65.3427 -19.9476 499.246 914.689 761.898 97.5601 56.9626 285.891 -766.174 644.943
4899 1 -17.4719 -65.2114 -17.9924 494.259 638.307 1285.73 -63.1958 -64.3368 -39.5363 -766.623 749.837
4902 2 -16.178 -64.939 -19.0252 -395.023 -517.819 -511.729 116.015 -163.917 -147.698 -278.494 448.105
4908 2 -17.1907 -64.6978 -16.4843 -417.6 -459.24 -345.177 120.808 65.1803 1.87898 -273.379 257.942
7404 2 -12.6115 -64.373 -17.2213 -271.456 74.6707 -30.843 114.445 150.913 485.478 -267.028 953.467
5003 2 -14.1789 -64.0215 -20.4676 -274.902 -180.179 -546.833 -16.8071 -32.1394 -211.455 -276.991 496.752
9893 2 -10.5447 -67.6028 -15.0916 6.63007 -543.331 -704.291 -256.742 251.292 32.8016 -264.566 898.503
2506 2 -18.5197 -62.9109 -15.2311 -230.568 -569.496 -633.135 -112.064 -96.421 29.8088 -262.597 456.862
2501 2 -21.1028 -62.0497 -14.6562 -287.775 -413.877 -633.178 -121.771 -18.6869 87.4219 -272.306 400.136
2 1 -22.6115 -62.1877 -15.1379 601.562 575.426 1017.09 182.232 228.25 -112.238 -797.975 691.316
7 2 -24.2042 -61.2788 -20.5896 -413.106 -520.648 -674.056 35.7632 105.279 8.41279 -267.188 298.157
2503 2 -19.9371 -61.291 -19.8608 -381.442 -281.402 -497.61 85.8132 78.8938 148.668 -269.303 377.088
8 2 -22.6834 -61.4192 -16.5564 -611.249 -489.001 -417.93 -62.905 -81.3692 -39.3489 -261.659 255.074
9 2 -23.2351 -59.8238 -18.5984 -474.185 -439.113 -361.337 -81.1592 145.464 24.749 -264.445 308.358
2497 1 -19.5987 -60.0343 -18.7924 754.952 571.424 1161.89 139.538 192.878 105.249 -799.967 690.807
6 2 -20.7777 -60.1447 -17.7642 -328.749 -453.903 -763.678 -32.4479 -62.2963 -22.3426 -263.44 408.28
1 1 -24.4466 -60.0117 -19.6455 892.579 530.543 995.236 95.6657 -45.0085 30.1555 -803.953 463.719
3 1 -22.3202 -60.0485 -17.2946 916.538 730.941 806.209 36.4816 142.234 -44.4167 -805.916 311.039
2603 2 -19.6609 -58.7331 -19.6313 -576.014 -512.188 -640.072 -28.5706 -63.1645 5.07662 -263.665 163.588
107 2 -24.7139 -58.7497 -20.5109 -560.008 -548.365 -675.542 -3.48482 -62.2227 1.01373 -262.586 162.737
12 2 -22.4963 -58.9306 -16.2035 -593.004 -471.551 -461.488 -63.9775 -74.0001 58.4527 -265.154 234.589
2597 2 -20.9628 -57.8794 -14.3877 -68.7643 -478.687 -615.759 -47.3127 87.0473 134.757 -254.173 571.787
98 1 -22.532 -57.9329 -14.9361 985.763 818.362 884.022 61.5239 245.857 -105.29 -808.877 497.287
2596 1 -19.7899 -57.3442 -20.4508 863.754 762.852 705.4 89.7714 37.0127 -99.1841 -805.652 277.629
2602 2 -18.3086 -58.4812 -14.6074 3.52035 -542.393 -387.902 5.41223 -228.151 31.7911 -255.25 629.943
2512 1 -19.6798 -62.6 -14.164 910.808 957.446 928.225 161.321 53.8712 -155.955 -801.184 401.762
2500 1 -20.0145 -62.5134 -20.8401 653.162 980.656 771.452 -41.5264 -175.581 -59.2236 -779.905 436.678
29898 2 -25.6447 -64.372 2.55539 -538.165 -369.019 -496.691 -67.5769 -356.875 227.497 -243.345 757.864
2505 2 -18.1335 -60.2781 -18.1203 -286.165 -369.788 -584.944 -93.0551 88.8634 18.6315 -269.269 349.265
4997 2 -15.9537 -63.1697 -14.669 -433.894 -517.53 -388.174 27.7148 220.431 -0.361048 -259.546 401.228
5002 2 -13.4866 -63.2171 -14.8998 -582.383 -443.438 -238.901 3.83569 -187.518 38.8403 -263.292 446.788
7493 2 -10.958 -63.1604 -15.3032 -127.707 -398.251 -514.969 75.4825 333.151 28.4711 -261.844 686.212
4994 1 -12.3893 -63.1208 -16.0586 793.072 1011.03 1432.24 -50.8098 26.7734 86.9954 -796.589 591.036
2498 1 -17.0606 -63.2574 -15.8075 797.465 801.519 804.972 -23.2623 11.9722 -117.071 -796.484 207.876
2504 2 -16.7718 -62.1119 -16.899 -538.793 -230.971 -591.982 68.3833 -0.603739 -13.9804 -274.296 358.57
5000 2 -12.4645 -61.6327 -16.8205 -370.04 68.2492 -561.045 117.032 34.2183 -167.485 -267.621 664.117
4999 2 -13.727 -61.4353 -20.005 -584.413 -416.825 -661.659 17.0751 -65.2613 138.318 -268.276 343.577
2499 1 -16.7301 -60.6392 -17.4733 689.301 722.686 1116.44 7.68604 59.5645 88.7014 -798.503 451.366
2502 2 -15.5288 -60.3581 -18.4933 -339.13 -402.067 -690.732 130.371 -67.1439 -73.349 -272.666 431.406
4995 1 -12.0646 -60.1109 -17.1306 800.213 904.643 1009.96 -169.764 -240.318 -46.3751 -805.041 546.961
4993 1 -14.1779 -60.048 -19.2561 839.814 744.126 1058.62 -150.512 -26.2675 -100.449 -792.691 422.225
5001 2 -12.9872 -59.5867 -18.3107 -281.618 -567.972 -707.176 31.5473 109.857 -38.7774 -265.603 430.047
2508 2 -16.5321 -59.4888 -16.2893 -577.925 -255.193 -633.228 11.6792 -43.8291 135.138 -258.704 431.303
5004 2 -12.4129 -59.1032 -15.8927 -474.338 -260.589 -670.274 11.8261 -9.61966 188.645 -257.978 483.134
5099 2 -14.4151 -59.0074 -20.5011 -529.7 -358.427 -441.592 5.2213 -17.6715 -147.631 -259.275 297.338
2594 1 -16.7901 -58.3486 -15.2744 1170.28 901.84 914.121 29.3811 -18.633 -358.366 -812.15 676.626
5090 1 -12.1162 -58.0106 -14.79 673.594 875.268 1061.22 -50.3723 51.6581 -210.45 -822.316 511.113
2600 2 -16.6846 -56.9032 -16.0832 -443.185 -222.568 -293.963 31.9572 12.9629 -211.936 -262.083 419.925
5093 2 -15.6033 -58.4395 -14.1306 -214.955 -554.148 -622.444 19.6228 81.3392 62.4794 -255.86 419.043
7589 2 -10.5894 -58.0687 -14.3167 -363.945 -498.491 -617.001 5.88301 157.394 106.835 -257.089 395.924
5096 2 -12.4637 -56.5325 -15.3876 -471.565 -247.879 -585.724 48.695 -62.904 11.1563 -262.538 328.575
4998 2 -10.4978 -59.9312 -17.5394 -61.0194 -461.512 -609.517 174.496 -156.735 -29.8423 -260.886 639.758
103 2 -24.6844 -56.1592 -20.3764 -560.754 -271.343 -369.211 -23.0199 199.258 264.492 -258.554 628.954
104 2 -23.0007 -56.4887 -15.4645 -603.321 -241.953 -324.404 -26.9835 66.2267 -192.526 -260.099 483.871
2599 2 -20.2537 -56.2329 -19.4553 -661.084 -565.066 -672.97 3.29121 -80.7035 -30.0831 -260.981 181.077
105 2 -23.5974 -55.6117 -17.9937 -471.91 -619.108 -474.56 -23.5939 -13.7446 -40.8311 -267.671 168.887
2601 2 -18.5914 -55.8843 -17.6634 -419.787 -441.322 -689.694 -71.7153 -30.2408 1.19339 -264.696 292.708
2593 1 -19.998 -55.452 -18.1042 493.122 894.816 1010.1 87.9676 -31.9559 -124.109 -808.486 541.704
97 1 -24.7709 -55.3158 -19.0177 868.867 990.982 750.531 169.976 38.0083 85.1022 -813.703 395.098
102 2 -21.1671 -55.8044 -17.032 -157.807 -433.123 -590.934 -65.3419 -153.519 75.9382 -258.042 494.938
99 1 -22.7225 -55.4406 -16.6983 883.769 927.323 1016.81 -87.8839 -0.630456 -73.0542 -805.523 230.186
203 2 -24.6948 -53.7384 -19.3604 -467.755 -275.438 -415.453 92.6899 -220.087 -224.787 -253.581 593.582
2699 2 -20.1472 -53.8582 -18.4754 -429.644 -284.043 -632.824 -9.22546 27.7908 -143.96 -257.154 395.994
108 2 -22.9476 -53.9174 -16.1635 -479.485 -157.169 -481.439 -113.419 -103.937 230.662 -262.921 578.909
196 1 -24.4111 -52.7905 -20.6843 895.189 609.805 1396.52 134.201 95.201 89.3087 -808.558 762.227
2704 1 -19.4641 -52.5447 -14.4699 950.307 857.96 1061.76 9.3864 194.196 -34.2304 -838.689 384.911
2692 1 -19.9783 -52.8641 -19.6951 817.375 686.81 935.003 -185.702 -107.453 37.3868 -821.035 434.2
2693 2 -20.9898 -52.5972 -15.0262 -124.839 -506.896 -602.756 159.342 75.8679 123.233 -245.353 575.132
194 1 -22.5811 -52.5453 -15.421 905.912 782.048 1060.76 37.8131 184.815 -54.1814 -829.569 417.215
199 2 -24.002 -51.3564 -20.131 -546.359 -348.596 -559.785 -147.597 1.34832 114.895 -264.788 383.286
2695 2 -20.2443 -51.3556 -19.2322 -455.116 -350.402 -649.617 -30.7365 3.95271 204.975 -247.848 445.071
200 2 -22.5854 -51.2406 -16.3809 -604.111 -271.83 -604.791 94.5071 -43.7703 -101.477 -244.904 417.22
2698 2 -18.4007 -52.4264 -15.6534 -349.331 -547.17 -621.451 -6.87924 -171.693 69.0191 -244.875 402.767
2782 2 -18.5198 -53.1174 -20.3562 -431.266 -393.322 -409.07 -19.4265 -193.155 61.2034 -263.148 354.1
202 2 -23.4729 -52.23 -14.1688 -582.169 -448.203 -545.526 -60.7676 -85.0016 73.8439 -255.715 251.979
193 1 -24.3422 -49.9085 -19.583 1068.66 730.462 889.443 10.8348 0.21187 -63.0063 -813.64 313.286
5133 2 -13.2826 -54.8109 2.44497 -385.413 -691.895 -510.322 24.1958 -3.05655 85.4709 -243.958 308.141
5106 2 -10.4478 -55.1661 -12.097 -417.497 -549.125 -471.934 -110.459 -39.7355 206.758 -257.538 427.447
5095 2 -13.8214 -56.6336 -19.8385 -444.56 -588.938 -396.555 -69.6613 -106.895 125.198 -257.403 354.883
2598 2 -15.9896 -55.8157 -18.4319 -152.585 -407.049 -500.95 66.6927 -232.094 -42.4337 -264.93 527.079
2595 1 -17.0299 -55.7822 -17.1771 791.348 671.654 1329.44 -25.1542 36.1693 -77.5001 -811.634 626.197
5097 2 -13.6024 -55.5231 -17.4423 -323.587 -644.237 -713.38 10.6815 110.505 17.7836 -255.85 409.504
5091 1 -12.4239 -55.333 -16.4052 1098.35 559.296 979.968 -68.7299 -315.147 -146.475 -816.621 785.666
5094 2 -10.9135 -55.2437 -17.231 -33.312 -418.521 -405.313 138.251 -246.653 -37.0936 -252.877 622.457
5089 1 -14.4429 -55.5542 -18.7958 960.599 884.663 1007.32 -58.6883 -125.643 -135.952 -813.288 353.039
2604 2 -16.8902 -54.3225 -16.5683 -527.867 -399.423 -698.817 44.4403 26.4392 98.5939 -252.987 323.826
5100 2 -12.6435 -53.8713 -15.8723 -481.437 -391.35 -768.359 29.6031 37.3839 -119.292 -256.672 407.187
5195 2 -14.1714 -54.1656 -19.6261 -472.444 -194.737 -396.184 149.82 3.10785 -279.156 -250.512 602.42
2690 1 -16.8786 -52.7793 -16.1288 881.423 691.415 941.03 -61.2447 -174.532 -35.778 -831.049 396.811
5189 2 -15.9503 -52.5215 -14.9293 -460.475 -597.807 -630.827 -32.6299 9.96424 34.8136 -253.263 177.801
5186 1 -12.2006 -52.4107 -15.3604 822.913 851.506 1257.38 57.2441 -73.8957 -63.6514 -822.873 464.246
2696 2 -16.4808 -51.8731 -17.3805 -440.513 -151.136 -530.767 -18.0728 11.7785 -145.093 -254.187 427.264
5192 2 -12.1852 -51.2441 -16.4847 -505.373 -263.306 -411.065 39.5526 -20.1273 -192.222 -254.977 401.769
5191 2 -14.2811 -51.5313 -20.2287 -533.865 -155.155 -531.383 57.3821 11.3587 126.045 -258.363 447.677
2691 1 -16.7632 -50.2955 -17.8456 579.936 1003.46 1064.14 -39.0937 82.0426 -123.189 -815.652 528.258
7685 2 -10.777 -52.4214 -14.6317 -205.165 -431.472 -525.92 -38.2883 230.204 80.8906 -256.431 514.315
5194 2 -13.3937 -52.1294 -14.2525 -200.019 -539.05 -487.964 87.5972 -127.739 -49.8333 -243.807 423.856
5188 1 -14.4443 -53.0367 -20.7908 730.563 880.628 1275.12 -156.641 118.805 -48.07 -822.8 600.187
5185 1 -14.2696 -50.04 -19.5942 984.198 999.123 948.578 26.1319 -34.4022 -32.3596 -811.853 103.748
5125 1 -14.7569 -54.9546 1.87296 673.878 811.602 783.398 -45.2322 61.1776 81.3594 -852.068 230.441
2730 2 -15.8999 -50.8833 3.4917 -246.72 -735.449 -467.632 54.6427 -77.0105 70.8229 -244.743 470.626
5217 2 -13.017 -49.7501 -4.50333 -463.307 -672.349 -444.942 8.12017 63.4381 43.9737 -250.327 256.801
5187 1 -12.0864 -49.8666 -17.3282 945.231 917.133 760.197 12.3561 -104.731 -182.3 -824.609 403.599
4906 2 -18.5336 -69.0678 -13.8025 143.465 -314.082 -633.543 -312.106 -65.7812 -54.088 -269.403 878.386
2422 2 -23.6844 -67.8144 -7.93696 -439.749 -397.112 -662.079 -45.9744 -135.549 -90.9859 -254.319 383.438
2414 1 -22.1562 -67.6537 -8.24997 858.097 1047.44 673.308 -80.2708 20.1031 311.984 -823.387 646.167
2328 2 -21.906 -67.2309 -9.72913 -708.158 -417.935 -370.884 -53.5182 -31.5545 -252.763 -255.256 550.768
4915 2 -19.3171 -66.6068 -13.8672 -459.153 -36.799 -185.023 44.7839 -95.508 485.484 -274.948 937.131
2419 2 -25.053 -66.3872 -13.7131 -375.99 -421.269 -84.0737 19.0014 142.036 158.803 -277.492 487.589
2418 2 -20.7502 -65.8834 -11.725 -466.413 -540.161 -470.605 58.4189 -169.666 -0.0990987 -261.714 318.976
2421 2 -23.3793 -65.7851 -11.5597 -190.372 -504.619 -205.421 5.58466 276.82 47.6851 -262.476 575.371
2415 1 -21.9551 -65.9432 -10.716 1121 1110.47 730.419 -47.5112 329.405 117.936 -816.919 722.892
4909 1 -19.551 -65.4103 -12.683 1012.92 816.998 1112.83 -16.7464 91.7296 -2.32861 -803.735 306.663
2413 1 -24.7552 -65.5119 -12.3245 920.493 861.61 1136.5 113.79 42.1764 -32.6413 -814.319 332.002
2424 2 -21.7385 -64.672 -9.68083 -583.11 -103.438 -214.8 64.5798 55.318 384.039 -244.756 808.219
2519 2 -19.9145 -64.0653 -13.4494 -560.398 -144.606 -482.196 -56.711 33.9255 -122.186 -264.53 452.076
23 2 -24.7418 -63.9734 -12.8064 -594.289 -375.458 -717.224 12.0663 -85.7599 22.3607 -250.367 337.496
22 2 -23.3994 -64.0074 -7.77847 -276.829 -438.316 -292.434 27.8425 -340.812 61.76 -238.352 621.311
4918 2 -18.666 -67.3655 -7.24268 204.264 -358.999 -539.154 33.5071 -423.332 -27.743 -255.861 997.247
2420 2 -21.3954 -66.5596 -7.21522 -173.062 -1036.61 -281.915 151.307 228.186 -37.4389 -218.557 944.809
2428 1 -25.1016 -67.7719 -7.20808 705.538 1021.92 748.14 122.936 6.82909 9.67014 -838.906 366.324
4917 2 -18.2519 -65.2176 -11.7197 -385.786 -533.525 -208.085 14.0902 233.5 140.347 -258.489 550.374
14 1 -21.9532 -63.5893 -8.41237 1171.24 1236.38 901.375 143.829 27.6589 -39.5824 -837.568 404.606
7399 2 -13.9154 -69.6374 -14.1587 -470.802 -58.6297 -504.055 -325.516 -197.886 281.898 -266.753 926.529
7408 1 -14.5014 -68.0845 -13.9698 916.897 809.668 1134.33 51.2424 140.196 -304.962 -774.458 654.17
7409 2 -16.0919 -68.3043 -7.8747 65.6298 -767.961 -395.256 -36.9592 136.975 -43.8307 -234.623 767.624
7414 2 -13.4414 -67.4181 -7.81636 145.535 -378.172 -804.596 -19.2246 -21.9084 2.1327 -260.527 825.827
4910 1 -17.2764 -67.2173 -8.1098 948.259 1156.69 1046.94 80.1176 11.2996 117.824 -805.723 306.434
7406 1 -11.8403 -67.3788 -8.02864 794.505 1199.6 1071.33 -93.5234 -231.049 -46.6427 -814.548 567.019
7411 2 -14.5506 -67.3284 -12.5654 -608.325 -165.384 -375.357 4.35031 61.0144 331.919 -262.58 699.296
7320 2 -11.4896 -67.0432 -9.57316 -576.603 -484.679 -337.638 33.0146 -168.814 -275.297 -245.223 599.765
4824 2 -17.7052 -66.6827 -9.56885 -630.627 -285.002 -246.354 -94.6428 5.98941 -280.594 -247.24 630.465
4916 2 -16.0311 -66.1676 -7.66304 149.913 -935.441 -589.983 -5.90597 -0.268996 -73.9403 -229.32 968.966
7405 1 -14.494 -65.8615 -11.8566 896.957 969.21 952.048 66.5257 57.3628 -168.881 -819.831 336.134
4914 2 -15.8265 -65.6286 -11.0032 -501.986 -576.679 -574.152 -124.441 -110.492 87.2342 -252.665 333.629
4911 1 -17.2723 -65.3414 -10.4418 914.385 1134.98 733.616 135.811 99.655 -66.2598 -826.813 468.525
7407 1 -11.6325 -65.6736 -10.3977 1014.24 1054.08 941.535 -55.2075 27.5196 -19.5022 -834.351 149.422
7413 2 -13.1503 -65.6503 -10.9814 -205.795 -536.416 -417.71 88.8898 215.832 122.718 -253.152 541.098
4920 2 -17.3775 -64.1359 -9.41136 -624.49 -583.9 -318.901 3.90138 -107 96.4343 -253.748 380.683
5015 2 -14.5531 -64.7063 -12.9834 -537.256 -4.47282 -588.722 -20.9899 63.7968 -84.525 -259.753 590.671
7416 2 -11.3304 -64.4916 -9.34697 -544.34 -497.557 -490.066 174.08 122.13 355.578 -238.739 719.418
9905 2 -10.8152 -68.4146 -7.24003 -31.2336 -620.261 -368.836 6.22618 368.726 86.3907 -222.307 832.139
7420 1 -14.931 -67.3233 -7.24589 540.212 1271.44 1005.99 -93.3219 21.08 -45.0375 -819.913 666.786
2686 2 -18.3655 -57.0053 -21.0802 -315.863 -572.693 -671.036 -4.38173 11.52 -42.1809 -267.996 326.625
5014 2 -12.9427 -63.8149 -7.46283 -282.189 -607.466 -615.622 203.123 -51.5156 63.7381 -236.284 502.445
7308 2 -10.4826 -69.6148 -13.9782 -706.446 -200.468 -785.638 188.429 196.303 372.971 -258.355 970.462
106 2 -23.4892 -58.4059 -13.7959 -568.373 -508.25 -517.177 -73.35 -86.812 152.223 -264.341 333.801
10 2 -23.6897 -61.8942 -14.0769 -552.357 -606.161 -666.085 43.9931 -23.4213 -143.928 -260.241 281.616
7721 2 -10.5603 -53.2886 6.503 -395.881 -731.983 -297.485 -9.278 121.336 -67.7855 -248.017 462.523
16 1 -25.0141 -62.5553 -13.4541 837.343 759.076 815.209 42.9793 110.797 -149.216 -828.35 337.712
2608 1 -19.5344 -57.9366 -13.6675 933.07 630.635 1151.5 -21.107 -27.4441 -244.46 -822.7 622.994
20 2 -21.9763 -62.0808 -9.03216 -552.624 -233.395 -238.628 -73.3622 -100.778 -165.644 -257.999 478.741
2515 2 -19.0531 -61.5199 -13.128 -506.388 -174.467 -383.15 8.79839 -21.0073 270.29 -255.029 552.432
21 2 -23.6373 -61.0884 -10.8201 -444.368 -449.102 -588.289 -230.579 -31.6714 -2.26263 -255.176 427.293
18 2 -21.0123 -61.0565 -11.4072 -486.673 -527.9 -318.413 21.5235 -335.833 -8.45813 -253.342 613.925
15 1 -22.1742 -61.0207 -10.2216 958.714 842.952 1189.05 192.06 56.9928 -35.0606 -822.085 466.063
2517 2 -18.6455 -60.7716 -10.6625 -598.072 -523.161 -441.267 -169.33 69.4923 -158.75 -249.493 441.093
2509 1 -19.6167 -60.5415 -11.9196 941.928 970.909 916.888 -182.96 9.23964 -91.0408 -822.361 357.404
13 1 -25.0917 -60.4878 -11.2163 836.25 923.491 781.978 13.8114 189.399 -70.8149 -830.059 372.188
24 2 -22.0005 -59.4901 -9.64068 -582.527 -301.82 -645.743 -38.9152 -78.5598 62.4277 -249.858 367.815
2615 2 -19.7441 -59.0178 -12.4618 -563.518 -61.8409 -449.209 31.8143 -21.0648 -106.993 -255.308 496.095
119 2 -25.0356 -59.0249 -11.7926 -533.215 -489.585 -467.769 -22.2472 -10.0617 -65.8595 -255.208 134.657
112 1 -24.8204 -57.9835 -13.0208 875.955 808.323 851.268 -40.1877 90.4334 -134.841 -816.82 295.703
124 1 -24.7657 -57.9496 -7.57214 903.404 1108.31 833.988 86.6343 140.794 -119.412 -832.262 431.035
110 1 -22.1811 -57.9888 -9.23063 1120.9 778.778 1050.22 -80.7215 161.592 -256.067 -831.769 626.465
118 2 -23.6788 -57.6906 -8.71819 -411.473 -552.105 -490.172 -5.89986 -148.09 50.6966 -250.606 297.507
2609 2 -21.1204 -57.8181 -7.98403 -494.897 -600.154 -285.964 14.3988 159.503 39.381 -243.886 397.897
2614 2 -18.6059 -57.6503 -7.84054 -548.873 -631.534 -491.016 -19.3301 -90.3848 154.205 -238.711 334.559
116 2 -21.8649 -56.8745 -10.4012 -554.076 29.5968 -298.732 141.997 -49.6955 -169.842 -252.151 641.307
2510 1 -17.2268 -63.3834 -7.99515 1212.83 986.099 954.838 -162.818 133.05 -123.091 -850.39 487.402
5009 2 -15.666 -63.4156 -7.51091 -12.9494 -828.245 -494.353 -67.9804 157.454 64.6976 -227.07 777.668
5006 1 -11.4749 -63.44 -8.11298 1171.1 1127.01 1164.75 -62.1401 23.9992 -175.759 -859.676 328.163
5008 1 -14.6116 -63.2588 -13.7444 900.31 1116.77 1035.69 -75.1111 -13.1643 8.08172 -811.534 231.346
5012 2 -11.5976 -62.0254 -8.87701 -525.96 -210.915 -282.459 24.5707 -30.0412 -270.135 -244.574 552.513
5011 2 -14.6216 -61.9806 -12.7042 -513.316 -120.909 -405.403 -30.2753 -94.6972 252.447 -256.066 586.62
2516 2 -17.5909 -61.8499 -8.40022 -568.108 -410.333 -420.584 36.7807 -3.75306 -120.515 -243.589 266.558
2514 2 -16.0512 -61.2847 -10.5684 -164.166 -537.705 -348.864 27.1651 -288.389 95.8456 -246.176 619.621
5013 2 -13.4047 -61.1554 -10.5972 -530.317 -664.649 -689.555 -40.1495 110.079 64.1245 -240.652 274.836
5010 2 -10.9853 -61.0153 -11.4206 -330.235 -514.542 -308.683 126.144 -101.68 -4.36436 -252.229 342.369
5005 1 -14.7335 -60.9869 -11.4514 842.634 900.01 1059.85 -64.0053 -63.3086 -178.472 -843.99 397.342
2511 1 -17.4062 -60.9145 -9.67306 1113.62 989.408 1101.73 -62.385 -142.053 12.8679 -837.485 294.625
5007 1 -11.94 -60.9239 -10.0721 657.734 1108.45 1371.87 -149.995 -102.702 -301.618 -833.641 873.684
5016 2 -11.9602 -59.3358 -9.6785 -563.724 -30.6779 -606.019 -107.413 -39.0736 21.6577 -247.32 590.824
5111 2 -14.806 -59.464 -11.9678 -555.439 -306.082 -635.975 57.9258 -11.5755 -11.0584 -243.991 315.567
2520 2 -17.2254 -59.3191 -9.20843 -606.339 -257.862 -634.698 0.121583 -25.5356 100.17 -237.68 405.193
5098 2 -13.0418 -58.2885 -13.5211 -337.284 -547.866 -576.501 50.5868 -58.8499 12.2531 -245.702 264.031
5104 1 -14.5844 -58.2284 -12.9685 900.294 797.91 937.042 -87.117 -111.635 -76.3169 -834.881 305.325
5102 1 -12.0137 -57.7554 -9.32803 1052.35 1032.53 899.51 -37.0175 42.9408 -59.4556 -838.776 202.417
2606 1 -17.2993 -57.8302 -8.7274 873.832 830.459 1003.73 10.1918 24.999 -151.359 -854.704 308.714
5110 2 -13.5059 -57.4788 -8.74382 -329.456 -578.776 -335.432 78.311 -183.621 -1.78974 -243.665 424.575
5105 2 -15.9407 -57.5165 -7.89119 -384.833 -617.896 -550.88 -6.47173 135.931 117.478 -239.577 374.367
5116 1 -14.4504 -57.8583 -7.48349 760.267 1348.71 1044.89 15.1142 59.4516 -219.712 -844.851 644.904
7601 2 -10.9156 -57.5096 -8.16961 -428.508 -618.054 -329.977 30.5894 170.646 104.201 -247.339 432.496
5108 2 -11.6518 -56.6742 -10.4531 -575.117 -273.918 -635.483 100.213 -22.4959 -18.2713 -245.693 381.045
5107 2 -14.7105 -56.7809 -12.3112 -551.376 -452.95 -639.823 133.196 102.838 -38.9469 -250.379 340.173
7505 2 -10.3203 -63.288 -6.95714 -474.979 -675.096 -258.863 28.4816 229.216 123.514 -230.296 579.501
115 2 -24.813 -56.5015 -12.4487 -572.325 -428.189 -553.326 -93.1052 -45.9936 116.841 -260.764 302.829
2611 2 -19.0809 -56.4946 -13.2714 -637.49 -695.754 -626.685 35.0673 -22.6719 -34.8195 -256.299 114.059
111 1 -21.7802 -55.2726 -10.8518 808.319 1219.46 931.607 79.389 153.445 -193.533 -820.143 579.187
2605 1 -19.2828 -55.0699 -12.6633 953.803 595.369 912.759 9.53126 164.462 -73.0332 -830.174 461.374
114 2 -20.7495 -55.0411 -12.0554 -426.157 -532.98 -524.644 38.2345 -78.4916 0.86608 -257.166 182.923
109 1 -24.7987 -55.0929 -11.7189 959.205 982.235 959.64 46.7101 62.0641 -203.995 -824.878 378.767
117 2 -23.2775 -54.8849 -11.2009 -264.908 -646.095 -514.2 37.5317 -39.6591 107.931 -256.294 395.367
2711 2 -19.1488 -53.9366 -13.7597 -587.152 -495.476 -631.035 -26.4392 -36.689 59.4758 -248.576 176.354
120 2 -21.293 -54.3305 -9.60475 -567.34 -268.848 -292.964 -0.884029 -61.7913 316.331 -248.966 627.8
215 2 -25.0633 -53.7753 -12.6667 -592.237 -420.626 -514.959 -4.42804 -47.756 -31.4009 -247.744 178.939
214 2 -23.2704 -53.1609 -8.2717 -212.687 -607.74 -448.28 -14.7113 -90.5339 87.5171 -255.431 408.308
206 1 -21.734 -53.0811 -8.65541 1102.8 1004.83 735.967 -89.0747 52.2983 -155.523 -833.23 461.298
208 1 -24.9183 -52.4599 -13.5175 957.816 775.738 761.203 117.691 63.5177 -149.064 -830.959 395.382
212 2 -21.5815 -51.7122 -9.47962 -682.672 -268.73 -570.57 -42.6951 78.6384 21.6484 -246.275 403.656
2707 2 -19.1972 -51.3438 -13.4109 -611.286 -304.262 -384.276 91.6153 155.581 225.756 -246.453 571.659
211 2 -25.2963 -51.295 -12.5005 -615.715 -642.118 -510.676 -40.8465 -36.9875 82.3399 -247.388 209.65
213 2 -23.5098 -50.5202 -10.8333 -175.546 -555.377 -479.506 44.9905 59.0865 97.7639 -249.714 407.957
210 2 -20.8905 -50.7089 -11.6514 -272.178 -593.085 -701.597 104.065 -126.491 29.7824 -237.69 482.418
2701 1 -19.3681 -50.3545 -12.1402 1042.64 990.185 850.795 37.6307 35.8528 -32.0932 -837.858 201.711
207 1 -21.9114 -50.476 -10.4468 1059.23 937.649 928.342 -30.7115 153.96 -82.5574 -835.463 332.247
205 1 -25.04 -50.3177 -11.283 797.698 910.126 723.247 -23.9523 161.953 -125.081 -837.719 392.297
2709 2 -18.4297 -50.6698 -10.8897 -575.976 -644.547 -383.476 -34.9408 6.66819 -32.8995 -248.065 249.001
2613 2 -18.1756 -54.8193 -11.4877 -336.079 -567.02 -382.092 40.3768 127.527 83.2203 -247.078 345.371
2705 2 -20.7197 -53.084 -7.39221 -314.438 -640.362 -328.867 -22.954 133.067 11.9329 -251.741 396.056
7697 2 -10.4989 -53.3348 -7.5194 -296.523 -629.515 -443.013 37.0415 158.069 88.4387 -242.645 431.394
2612 2 -17.3297 -56.7206 -9.87874 -619.652 -428.221 -597.982 -21.1328 17.9343 25.0437 -241.726 192.752
5103 1 -11.5899 -55.1441 -10.9699 920.502 933.691 792.433 -169.127 3.69505 -218.79 -832.478 497.719
5101 1 -14.5626 -55.2358 -11.9988 632.69 950.886 1103.64 -7.41538 34.607 -303.149 -845.109 672.788
5109 2 -13.0948 -54.8484 -11.5429 -316.983 -602.634 -612.305 66.046 34.5408 110.703 -242.941 371.327
2607 1 -17.1734 -55.1869 -10.2868 1075.73 1008.63 753.663 -70.7695 8.94047 -228.515 -847.206 508.469
2610 2 -15.6448 -55.0139 -10.8805 -331.381 -762.928 -579.321 67.2493 -92.3124 40.097 -233.533 429.726
5112 2 -11.4079 -54.1517 -9.79617 -733.762 -685.449 -679.672 -32.4257 -115.419 -64.1288 -251.131 241.045
2616 2 -17.3706 -54.2557 -9.03613 -587.237 -473.848 -336.001 39.8287 -26.0533 203.088 -246.21 421.923
5207 2 -14.8598 -54.1327 -13.1914 -557.721 -168.388 -564.708 10.3564 -47.1081 -112.923 -247.056 446.747
5206 2 -13.1166 -53.2264 -8.10632 -255.232 -580.98 -445.03 34.9238 -152.761 36.307 -244.798 397.404
5201 2 -15.7063 -53.0788 -7.41506 -361.659 -613.54 -629.264 79.0962 35.9863 84.9992 -241.715 334.634
5198 1 -11.6047 -53.0873 -8.68385 1172.49 956.618 576.643 71.3218 78.2459 -299.795 -842.497 759.12
5200 1 -14.8451 -52.6377 -13.7417 1015.58 1052.92 940.353 46.9776 -31.522 -97.896 -837.551 219.577
2702 1 -17.2259 -53.1109 -7.86537 719.325 1130.91 958.11 -95.825 122.942 -16.3284 -849.561 449.259
5204 2 -11.3585 -51.6318 -9.30211 -557.838 -405.848 -346.565 -75.3641 41.5285 -125.286 -243.246 323.927
2708 2 -17.621 -51.7007 -8.55745 -613.251 -457.718 -649.842 -64.996 110.254 60.7437 -240.455 302.376
5203 2 -15.1733 -51.5968 -12.5374 -562.057 -219.813 -263.737 28.9623 116.201 367.548 -241.868 743.187
2706 2 -15.9616 -50.659 -10.1496 -335.356 -587.389 -443.445 53.8232 -190.642 64.4423 -238.794 422.071
5205 2 -13.3951 -50.7893 -10.7044 -258.154 -520.949 -547.574 45.6183 58.5155 83.5879 -257.921 337.999
5199 1 -11.8629 -50.4415 -10.3339 926.865 1039.21 1210.56 103.523 2.84007 -89.0307 -826.645 342.327
5197 1 -14.8285 -50.5148 -11.3085 686.055 1172.7 1209.21 8.91195 -1.65098 -60.8238 -833.812 516.982
2703 1 -17.4949 -50.5453 -9.60912 983.492 810.236 788.025 -79.7393 0.0304658 -62.9064 -849.097 255.55
5202 2 -10.7588 -50.4232 -11.5239 -128.013 -539.887 -549.589 -14.6988 -225.842 93.318 -253.58 594.573
5230 2 -13.1256 -53.4403 5.99642 -463.438 -745.498 -537.579 35.628 6.1046 -19.7457 -239.861 263.12
4913 2 -21.0455 -68.5911 -7.54139 -261.533 -856.812 -144.828 224.771 358.789 -20.8264 -220.835 988.184
2513 2 -20.8456 -63.7234 -7.27445 -537.494 -778.561 -187.374 -190.688 84.8151 -6.90462 -248.402 629.213
2518 2 -18.2614 -63.8287 -6.86465 -356.451 -601.123 -358.642 73.8512 -268.926 115.119 -241.557 576.555
4924 1 -20.1851 -67.4829 -6.60901 1293.02 1029.87 825.1 -134.032 4.86197 76.5207 -820.223 486.413
2431 2 -24.803 -67.5042 -5.6986 -811.745 -247.756 -505.564 60.0738 -60.7772 342.752 -231.279 783.258
4927 2 -20.035 -67.1938 -5.06717 -775.632 -362.942 -325.967 116.075 -22.4041 238.37 -246.783 631.922
2432 2 -23.1357 -66.5346 -1.1211 -643.988 -424.37 -221.438 113.684 -322.153 -160.925 -255.661 749.528