ITEM: TIMESTEP
860000
ITEM: NUMBER OF ATOMS
29952
ITEM: BOX BOUNDS pp pp pp
-2.5615833775063237e+01 3.5601128117061187e+01
-9.0049014246790634e+01 1.0003430858098938e+02
-2.1035324467156940e+01 3.4903177627851115e+01
ITEM: ATOMS id type x y z v_StrAtomXX v_StrAtomYY v_StrAtomZZ v_StrAtomXY v_StrAtomXZ v_StrAtomYZ c_PEAtom v_VMS
2400 2 -19.6179 -67.5505 -18.3351 215.45 -467.362 -256.852 -93.6293 439.734 -26.4125 -273.852 987.573
4901 2 -21.0214 -67.2414 -15.0285 56.2256 -571.308 -595.056 -76.8567 50.8657 -119.125 -284.908 690.883
2316 2 -22.0287 -67.0167 -17.4354 -400.296 -469.992 -326.394 -59.0451 -232.78 -113.6 -269.955 476.659
2494 2 -22.0428 -67.1827 -20.125 45.2811 -382.057 50.566 -96.5304 683.187 -258.318 -252.593 1346.58
2410 2 -23.7163 -66.9803 -15.3022 -75.2262 -437.396 -626.693 -152.482 -199.468 -106.751 -287.409 677.392
2486 1 -21.1166 -66.8839 -18.81 1316.92 631.964 1080.9 -36.7661 -40.2134 -25.8947 -780.226 611.661
2402 1 -22.2521 -66.6977 -15.8872 307.918 642.949 1234.13 217.72 261.14 279.474 -776.773 1113.96
4912 1 -19.4874 -67.2166 -14.5582 278.483 807.887 1218.13 327.755 132.36 44.559 -733.151 1023
2416 1 -25.094 -66.638 -14.6301 435.021 932.599 1333.13 -191.817 -40.3724 25.6197 -744.319 851.202
4904 2 -18.457 -67.497 -15.8316 -178.739 -650.089 -395.067 -278.413 208.592 -39.7006 -316.185 731.304
4900 1 -18.1972 -67.3895 -17.5414 916.137 486.89 1117.28 193.052 -6.3552 350.649 -757.899 889.856
4896 2 -16.1771 -71.0595 -17.664 -331.923 274.338 -513.845 -38.5386 38.9319 67.6034 -165.445 730.515
7392 2 -12.1075 -70.4731 -15.0702 283.381 -496.431 -905.58 -126.968 77.0254 57.8025 -277.424 1082.01
4982 1 -16.0651 -69.682 -16.9644 848.037 663.821 1655.16 234.098 -69.6763 3.93663 -819.772 1006.52
4812 2 -16.7802 -69.4736 -15.4552 -583.122 -323.555 -634.447 -166.924 -130.749 97.0992 -257.121 496.481
7396 1 -13.3448 -69.5089 -15.3841 594.672 220.524 2004.91 44.239 30.5746 -111.36 -732.3 1643.86
7481 2 -14.5278 -69.3471 -16.5199 113.646 -190.046 -806.966 -253.36 516.704 -241.299 -268.901 1352.17
7486 2 -11.9814 -68.4334 -15.8127 107.69 -133.836 -1150.44 -158.959 -22.969 -81.961 -301.312 1197.87
4990 2 -17.0201 -68.4372 -17.6663 -28.789 -279.271 -713.461 -362.363 227.45 -167.642 -261.702 996.72
4898 1 -17.2748 -68.2141 -14.6858 183.353 775.684 1298.57 494.103 -12.7084 12.322 -731.868 1291.26
7394 1 -12.0036 -66.7774 -15.6696 772.632 243.778 1333.17 57.9735 -13.0408 394.699 -758.319 1169.74
7397 2 -16.0288 -67.2371 -14.4486 148.44 -525.953 -647.878 251.192 107.277 -66.344 -287.144 888.211
7478 1 -10.7741 -69.6218 -15.1026 559.049 263.03 2060.11 -92.9806 -134.559 107.943 -724.825 1703.05
9893 2 -10.5311 -66.5776 -15.0109 59.17 -338.477 -622.516 -223.022 203.14 -19.7782 -274.211 791.161
7402 2 -13.3188 -66.5133 -14.8114 -26.9762 -459.716 -842.926 20.4859 -49.8733 -17.6939 -278.318 713.866
4906 2 -18.5526 -68.2835 -13.7825 75.9098 -434.352 -1022.71 -144.769 91.2229 -56.7145 -268.308 1002.12
4913 2 -21.3074 -67.4514 -7.24587 -210.773 -819.16 -290.492 89.855 216.094 28.8873 -227.773 703.423
2428 1 -25.2991 -66.5266 -7.15647 1036.34 1017.85 1157.2 -161.295 11.7706 165.172 -816.734 421.301
2414 1 -22.2637 -66.4431 -8.05136 685.764 1084.6 797.429 31.7675 42.1492 39.9201 -810.984 374.359
4918 2 -18.7814 -66.4099 -7.26952 97.137 -384.07 -613.376 13.1461 -326.502 18.5978 -259.901 846.08
2422 2 -23.8113 -66.4736 -7.81846 -151.067 -343.733 -708.221 -111.018 -182.004 8.24016 -262.151 613.801
2459 2 -25.5044 -66.8413 5.36749 -461.156 -536.044 -211.552 131.586 314.664 160.652 -220.106 716.25
7399 2 -14.0773 -68.7263 -14.1895 -451.342 -36.1266 -854.459 -244.602 -299.237 313.755 -271.368 1116.12
7408 1 -14.4973 -67.1659 -13.8899 542.519 772.469 1213.61 92.8265 155.863 -267.529 -768.635 813.857
7406 1 -11.9537 -66.4744 -7.90584 591.718 1113.4 1058.38 -62.6072 -293.339 168.22 -826.567 775.417
7409 2 -16.1428 -67.4251 -7.58262 77.3082 -524.62 -417.265 -63.9681 127.573 -46.0666 -227.031 613.75
9905 2 -10.8718 -67.5081 -7.34724 -46.8944 -959.015 -620.966 43.2351 304.284 -24.4246 -224.69 960.761
4910 1 -17.3279 -66.2876 -7.99187 795.509 1241.55 982.616 -113.669 89.5089 52.6609 -804.355 470.769
7414 2 -13.5394 -66.4061 -7.62099 83.1659 -369.56 -904.269 -124.866 61.6835 0.52573 -252.533 889.461
7308 2 -10.4656 -68.7104 -13.7894 -464.946 255.854 -685.223 270.687 158.858 358.172 -263.951 1186.27
2438 1 -21.4598 -66.1369 4.73203 1245.02 813.523 859.852 144.772 28.8185 83.4406 -873.94 504.583
4924 1 -20.2523 -66.3558 -6.60428 906.299 1110.02 947.008 -38.5186 -65.0469 -67.7868 -820.489 256.506
9928 1 -10.314 -67.1369 1.65396 1563.84 885.927 1064.46 -191.06 86.5846 -144.809 -911.239 751.875
7420 1 -15.0378 -66.3275 -7.06147 602.105 1218.12 823.545 6.20439 -65.1663 -169.365 -825.158 625.306
7332 2 -12.3261 -68.2069 -1.91081 -629.941 19.7823 -151.557 41.4846 -11.9711 51.5369 -108.925 594.756
7418 1 -12.6086 -67.2451 -0.648822 1503.63 1172.89 1483.39 4.52287 36.2271 437.815 -942.941 825.924
7426 2 -14.2546 -67.3431 -0.421205 122.679 -372.854 -710.955 -139.636 58.7268 -142.097 -197.87 810.445
9917 2 -11.5307 -67.4095 0.571667 -56.2157 -539.454 -481.429 11.6976 355.386 -30.2987 -206.007 768.706
4922 1 -17.7035 -67.0445 2.27997 1332.86 874.697 1416.33 -63.295 95.2017 166.753 -880.289 614.615
2434 2 -24.7746 -67.3987 0.265836 -15.0454 -612.658 -326.585 73.2393 -409.724 -79.0772 -230.875 898.049
4948 1 -18.905 -66.6045 6.48771 1088.94 1037.48 985.516 215.766 37.1342 -152.372 -862.173 470.613
4930 2 -19.2215 -67.3254 1.76536 -110.822 -614.982 -695.185 23.5676 267.949 7.43719 -218.755 719.908
4925 2 -22.1042 -66.9688 0.835481 19.5734 -427.716 -617.094 -327.921 226.871 83.1903 -242.882 904.659
4943 2 -21.1827 -66.6383 3.2392 -791.325 -591.378 -393.132 -9.54928 -21.0545 -70.2139 -224.426 367.848
4937 2 -20.2953 -66.6366 5.72841 -445.2 -524.074 -599.986 -76.393 135.685 -26.8936 -230.967 304.762
4936 1 -20.7174 -66.6826 1.68379 1340.9 714.113 1331.97 -7.57853 -59.5023 -141.487 -865.194 676.901
2446 2 -22.9623 -66.454 5.16879 -623.879 -627.162 -528.287 38.0647 -1.93859 38.4442 -224.785 135.109
2426 1 -23.4703 -66.4166 0.195617 1306.5 1095.87 955.277 10.0433 225.754 -104.159 -810.529 528.668
7421 2 -16.692 -67.2051 1.02006 -615.499 -455.815 -226.107 15.6856 -373.609 -165.805 -218.027 785.435
4940 2 -17.2744 -67.7564 3.71069 -678.762 -465.6 -19.9913 -9.35153 179.625 -136.214 -221.262 701.222
7432 1 -15.6419 -66.4797 -0.00341056 1562.81 970.511 1327.17 -262.909 129.218 47.9285 -887.062 728.783
7438 2 -12.4932 -67.2385 5.28544 109.685 -653.945 -476.264 61.9146 -311.575 8.47677 -199.304 884.291
7444 1 -14.0055 -66.7295 5.88115 1214.69 1263.76 1210.84 -261.698 -104.924 -126.951 -926.915 538.001
7433 2 -15.3807 -67.5277 5.55485 -244.301 -695.644 -760.703 -63.1642 49.6155 -2.78853 -215.387 506.64
4934 1 -16.9063 -67.4187 5.25309 904.871 1255.42 1048.25 136.992 78.8285 49.1068 -873.095 418.754
7430 1 -11.1337 -66.7609 4.48469 1211.99 947.75 1253.89 -162.092 -77.0522 280.954 -899.891 645.049
7344 2 -10.7816 -67.5296 3.13115 -821.255 -510.269 -462.055 111.923 67.7965 35.113 -209.703 411.216
4955 2 -17.994 -67.9712 6.26944 -406.13 -598.917 -563.217 -300.354 -142.529 247.797 -204.942 739.831
7411 2 -14.4506 -66.3298 -12.5633 -501.292 -173.617 -624.391 -38.2937 22.1164 329.993 -271.929 703.857
2453 2 -25.217 -66.5154 13.5182 -180.668 -351.534 -531.298 67.9324 308.64 -16.6406 -246.644 626.639
7451 2 -13.9528 -66.6332 7.51667 -653.902 -473.49 -184.818 -9.30507 5.95986 260.582 -214.78 609.947
2458 2 -22.7145 -67.2536 14.3725 -13.2506 -635.343 -677.803 129.57 -247.182 5.82629 -213.179 805.593
2404 1 -23.2054 -66.308 34.7361 1116.61 784.075 1295.86 -137.075 127.231 -56.4904 -779.425 562.867
2489 2 -24.6922 -66.7388 34.2213 317.848 -275.438 -760.251 -0.662883 331.577 11.021 -273.191 1097.66
2464 1 -24.0063 -66.3208 14.5995 813.322 893.018 1203.05 -46.4841 278.228 -260.174 -844.311 754.3
1 1 -24.2436 -59.3311 -19.4639 1056.31 496.548 978.822 72.1605 63.0884 -90.5613 -798.268 572.824
9 2 -22.871 -59.3923 -18.5228 -135.228 -363.377 -489.12 42.605 155.729 157.685 -269.883 499.345
3 1 -22.0755 -58.9001 -17.2286 873.745 789.636 917.499 100.792 61.8638 -218.282 -795.301 444.487
2497 1 -19.5194 -59.2184 -18.8135 756.581 594.433 1136.67 29.2019 84.7846 6.14977 -797.546 506.587
6 2 -20.5061 -58.9426 -17.5601 -282.677 -406.977 -581.972 -153.409 -171.934 174.757 -264.454 564.564
8 2 -22.4106 -60.0364 -16.0922 -585.664 -282.285 -699.359 86.1394 -99.6891 39.4552 -265.312 442.946
2503 2 -19.9139 -60.4886 -19.7017 -559.667 -368.274 -439.154 28.1699 -48.9204 63.476 -282.417 223.019
2 1 -22.4425 -61.1755 -15.042 694.578 573.252 888.736 86.7257 145.529 -0.378487 -804.585 402.585
7 2 -24.2953 -60.4537 -20.5846 -466.31 -488.004 -444.933 27.0469 67.3595 59.0982 -275.837 166.36
2507 2 -20.4954 -63.0285 -20.0379 -534.551 -362.269 -325.91 47.9784 -96.002 -125.008 -277.042 344.533
2412 2 -22.7323 -62.6341 -15.6472 -532.63 -372.698 -658.336 -62.914 -72.4046 34.5289 -270.706 304.406
11 2 -24.7139 -62.9851 -19.8661 -551.802 -272.16 -477.018 38.4671 17.1805 -175.992 -270.803 401.402
2406 2 -20.8522 -63.3443 -17.3502 -420.833 -387.163 -515.595 -59.8694 -122.327 -125.963 -281.836 341.394
4897 1 -20.1643 -63.8301 -18.6857 556.241 656.013 1007.4 134.228 221.535 440.798 -770.704 976.051
4905 2 -18.5986 -63.7674 -18.5167 -546.373 -423.557 -660.517 -87.8077 117.661 -145.955 -270.829 413.162
2403 1 -22.2476 -63.7575 -16.6436 835.134 383.041 1123.36 129.852 242.769 -17.9799 -773.839 803.824
2506 2 -18.4858 -61.914 -15.2224 -205.582 -340.753 -384.177 -56.4526 -266.555 65.1632 -266.8 511.352
2409 2 -23.3137 -63.974 -17.8517 -320.465 -487.055 -507.757 -22.8164 124.67 -117.927 -274.528 348.625
2401 1 -24.3725 -64.2813 -19.0233 915.414 885.36 826.097 40.9993 -63.5765 108.214 -793.76 241.859
2501 2 -20.9337 -61.2925 -14.4765 -519.27 -476.8 -744.086 -7.12599 27.7082 115.03 -260.252 322.561
2408 2 -22.0596 -65.113 -15.8474 -373.287 -591.362 -729.127 -26.7928 -90.3127 -138.267 -274.054 424.918
4985 2 -20.6245 -65.3777 -18.8906 -627.647 -419.11 -565.68 85.4743 -26.207 21.8023 -274.685 244.559
2407 2 -23.5384 -65.2308 -20.0571 -456.547 -636.986 -279.479 -45.5168 -237.275 111.695 -265.453 555.339
2505 2 -17.996 -59.3808 -18.3382 -389.796 -398.725 -650.505 -36.6992 15.1161 -10.579 -267.56 266.051
2500 1 -19.9358 -61.6818 -20.7322 841.431 759.298 852.23 -60.5624 16.0376 3.78702 -776.995 139.883
7401 2 -13.8454 -65.0403 -19.047 -313.951 -566.725 -105.42 51.2744 367.3 -105.566 -274.323 778.549
4908 2 -16.8666 -63.6526 -16.526 -346.677 -175.458 -341.082 0.900761 15.3102 348.218 -270.583 626.787
5001 2 -12.8671 -58.8792 -18.1416 -452.206 -490.076 -499.074 -77.0876 52.2442 -194.348 -268.906 375.746
4993 1 -13.9469 -59.0659 -19.1975 754.162 779.064 704.383 -119.91 -213.306 -2.974 -798.309 428.95
4995 1 -11.8905 -59.3655 -16.8739 934.882 794.461 1037.13 -188.027 11.0612 -54.2111 -796.629 399.722
2499 1 -16.6304 -59.6852 -17.6044 570.844 754.573 1067.12 -84.959 -7.27998 -85.9459 -810.358 482.533
2502 2 -15.3975 -59.344 -18.5627 -391.044 -408.593 -667.135 229.473 -6.55857 -111.463 -262.346 516.782
4999 2 -13.704 -60.5324 -19.9435 -623.723 -361.141 -590.2 41.9903 -9.14169 75.5815 -261.989 289.739
5000 2 -12.0178 -60.9461 -16.6137 -466.961 33.8823 -538.862 -38.3762 91.4365 -167.646 -266.847 637.057
2504 2 -16.6122 -61.1538 -16.9354 -413.334 -420.05 -436.581 76.9271 -26.4348 -218.47 -264.685 404.31
2498 1 -16.9856 -62.201 -15.7684 891.764 801.534 1055.66 -108.2 -71.2135 26.938 -796.616 319.848
4997 2 -15.9655 -62.0505 -14.5451 -476.65 -493.476 -545.123 108.502 148.325 37.6565 -264.914 330.745
5002 2 -13.47 -62.3871 -14.8319 -241.988 -340.681 -167.313 -14.5321 -345.811 116.356 -259.185 650.148
4994 1 -12.2269 -62.4337 -15.9291 821.979 636.57 1419.71 -34.1712 -256.438 -164.702 -798.026 885.808
5003 2 -14.2574 -63.0047 -20.5177 -518.821 -627.024 -690.326 -53.0296 -1.47515 -57.1596 -275.674 202.013
7404 2 -12.5558 -63.466 -17.1302 -369.834 -235.204 -351.713 103.41 163.444 206.457 -273.993 506.073
4902 2 -16.196 -63.9764 -19.0609 -514.806 -400.545 -436.842 83.4255 -176.366 -197.548 -272.521 491.422
4899 1 -17.2241 -64.401 -17.9368 439.426 840.205 1234.33 -11.0659 247.177 67.14 -775.206 819.2
7393 1 -14.9111 -64.3379 -20.0126 782.505 818.945 816.549 -147.917 30.0045 471.611 -769.079 858.392
7398 2 -11.3633 -64.8212 -19.103 -252.5 -764.492 -388.327 -193.95 -243.873 -62.0253 -259.45 716.838
7395 1 -12.5601 -64.8111 -18.0361 736.147 985.855 988.302 47.8348 -17.1949 422.984 -787.852 779.402
4903 2 -17.5708 -65.9658 -17.7237 -314.168 -393.753 -621.156 201.573 -106.956 -159.5 -287.019 555.589
7493 2 -10.9449 -62.8272 -15.0828 -295.291 -323.262 -537.924 92.2629 255.617 47.9158 -271.753 530.389
5004 2 -12.2331 -58.4083 -15.6567 -583.309 -275.003 -605.313 -35.7175 -9.47457 107.197 -268.391 375.354
4998 2 -10.372 -59.1636 -17.3967 -243.169 -521.125 -511.486 50.3784 -159.74 -118.89 -260.981 448.6
2508 2 -16.5415 -58.6735 -16.3815 -567.435 -305.253 -620.736 -5.82651 -30.9385 162.866 -252.819 410.005
7400 2 -12.2183 -66.0262 -17.0293 -480.792 -216.475 -690.585 -128.142 215.343 -286.87 -275.108 777.554
27462 2 -25.598 -59.4629 -18.5933 -180.536 -501.155 -598.547 -123.833 -85.1235 75.6949 -267.336 477.953
107 2 -24.2768 -57.9225 -20.163 -562.332 -284.549 -573.252 -124.31 -6.99253 -139.132 -255.593 429.994
2603 2 -19.7219 -57.9023 -19.6844 -560.059 -445.987 -726.503 6.85087 -36.6885 -40.6059 -260.395 262.351
12 2 -22.5378 -57.5124 -16.5956 -549.656 -357.737 -385.254 -46.5439 -27.047 229.76 -266.508 446.51
2597 2 -20.8862 -56.9087 -14.7025 -184.946 -441.82 -559.456 -10.7637 159.959 135.577 -264.007 492.231
98 1 -22.3859 -56.7597 -15.1773 920.152 667.825 1124.07 122.202 -2.13212 -190.563 -810.842 557.193
2596 1 -19.8035 -56.4704 -20.3497 1057.34 612.126 892.052 134.315 -25.5985 -16.3727 -808.605 456.987
103 2 -24.5421 -55.304 -19.9618 -516.348 -360.109 -465.987 -51.2036 47.4114 148.702 -257.445 316.266
104 2 -22.6235 -55.1668 -15.4405 -615.797 -77.6576 -690.543 15.0658 -48.9373 -44.4578 -255.732 590.931
2599 2 -20.2735 -55.4565 -19.1925 -625.675 -403.658 -503.14 -53.4554 -56.826 104.477 -252.641 296.83
105 2 -23.2897 -54.4079 -17.7811 -548.067 -608.877 -654.743 12.3334 48.6369 72.1612 -255.242 178.229
97 1 -24.5469 -54.2777 -18.677 674.789 830.662 1018.81 18.0638 -96.5147 38.4692 -823.86 349.835
102 2 -20.751 -54.3165 -16.9884 -515.862 -477.483 -892.902 -79.7676 72.0493 39.6222 -263.443 444.381
2593 1 -19.7885 -54.3235 -18.1658 740.936 733.399 802.862 119.519 314.558 -129.586 -822.283 628.038
99 1 -22.2807 -54.0909 -16.563 896.136 872.133 1024.16 -7.44113 76.32 -11.869 -806.2 195.196
203 2 -24.5675 -52.8167 -19.3589 -511.932 -291.925 -616.023 84.6018 -116.707 -202.276 -257.295 516.934
2699 2 -19.7911 -52.9065 -18.9206 -547.915 -344.536 -616.126 -8.74043 -55.9246 -21.1455 -256.963 266.161
108 2 -22.5925 -52.4948 -16.2097 -504.309 -57.2073 -573.671 -170.834 -112.059 52.4798 -254.762 607.626
2692 1 -19.5305 -51.7285 -19.9567 832.272 641.454 981.46 126.662 195.222 30.2676 -827.905 502.344
194 1 -22.4156 -51.1789 -15.3056 737.172 520.476 1116.76 51.2761 -64.9982 129.772 -824.835 586.845
2693 2 -20.9576 -51.3159 -14.7513 -473.42 -442.968 -648.856 -93.7927 -100.497 -27.616 -262.453 309.88
2704 1 -19.4328 -51.5791 -14.3468 871.376 999.712 994.588 -18.5181 101.038 5.1678 -818.222 218.114
2698 2 -18.3065 -51.5197 -15.4515 -226.088 -629.347 -730.738 -109.889 -40.1429 195.009 -253.672 607.397
196 1 -24.3554 -51.8286 -20.5971 828.456 676.044 1279.82 53.5149 -18.9118 95.0698 -806.704 576.653
2601 2 -18.257 -54.6412 -17.7781 -176.309 -494.697 -599.98 -64.4344 88.8461 20.0509 -247.872 428.157
202 2 -23.5678 -51.2217 -14.1385 -232.338 -435.526 -476.707 73.0178 -184.902 -24.6874 -249.988 414.413
2602 2 -18.2059 -57.4159 -14.8466 -234.771 -566.081 -610.95 76.6184 -89.5741 -133.056 -263.628 470.572
2782 2 -18.0706 -51.7432 -20.5402 -503.396 -555.336 -545.281 43.5007 -102.423 -28.1096 -252.304 204.44
199 2 -23.8975 -50.3429 -20.2333 -412.831 -201.401 -646.963 -78.1316 -66.0481 34.137 -264.867 428.859
5099 2 -13.994 -57.9839 -20.3543 -519.926 -530.538 -548.623 19.5482 23.6052 49.4662 -271.948 103.877
2594 1 -16.7284 -57.3449 -15.4441 890.694 927.529 1067.48 11.0996 89.2282 -153.032 -814.918 347.291
5090 1 -12.0828 -57.0471 -14.8604 827.594 784.12 1087.62 -18.0743 -103.362 -272.787 -809.191 580.583
2600 2 -16.5411 -56.0113 -16.3696 -505.887 -64.8775 -543.489 34.5785 -49.4676 -50.5724 -260.323 480.715
5096 2 -12.5246 -55.7323 -15.7057 -499.352 -24.5899 -511.501 18.3743 21.3772 -76.4022 -260.353 501.209
5095 2 -13.7441 -55.4047 -20.1572 -589.868 -214.683 -310.455 -96.4791 -111.617 209.359 -259.001 557.492
2598 2 -15.6382 -54.6818 -18.3703 -526.888 -548.661 -607.14 -64.286 -87.2347 35.2592 -257.042 210.058
5097 2 -13.206 -54.2791 -17.7483 -570.77 -539.477 -539.918 66.3805 51.6095 135.499 -256.434 277.948
2595 1 -16.7014 -54.6442 -17.2005 837.327 713.128 1086.89 9.35008 185.658 -77.7274 -822.28 480.098
5091 1 -12.2448 -54.3271 -16.4938 898.122 813.12 1049.62 -27.1828 -133.19 -90.3133 -818.879 350.654
5089 1 -14.2179 -54.3361 -18.9824 947.64 789.063 956.411 -42.8135 -43.8277 118.725 -816.683 283.13
2604 2 -16.5919 -53.2308 -16.5187 -541.643 -121.013 -713.385 -117.893 -55.6932 -55.9398 -259.815 582.284
5100 2 -12.402 -53.0268 -15.5708 -485.607 -339.676 -656.98 -23.3436 5.11543 123.882 -255.581 351.322
5195 2 -14.2118 -52.8844 -19.6592 -563.244 -288.049 -647.956 48.653 -35.3747 -82.1984 -254.802 370.602
5186 1 -12.1493 -51.5167 -15.11 599.966 740.968 1258.47 -12.8502 72.2124 -64.322 -831.656 623.868
2690 1 -16.8159 -51.6989 -16.0202 891.882 1001.59 1191.16 46.7297 38.2091 -157.298 -823.586 392.335
5189 2 -15.7308 -51.4671 -14.8335 -331.423 -598.28 -571.805 -38.7274 124.313 -40.7759 -252.187 347.415
2696 2 -16.6548 -50.5082 -17.1598 -502.104 68.6456 -393.806 -41.103 -1.6469 -353.775 -246.756 810.074
5094 2 -10.7453 -54.3491 -17.1236 -263.865 -465.129 -669.223 72.6217 -176.333 -51.0423 -255.092 490.057
5093 2 -15.5782 -57.3507 -14.3075 -229.492 -596.605 -579.099 26.4525 100.162 52.2447 -254.79 411.141
5194 2 -13.2574 -51.1495 -14.0602 -282.398 -467.67 -534.17 164.655 -161.649 -79.0046 -249.317 479.081
5188 1 -14.1515 -51.8799 -20.9019 588.827 698.05 1176.42 77.3623 51.8176 25.9224 -827.49 566.607
7685 2 -10.6852 -51.4732 -14.4855 -342.502 -489.703 -657.243 -120.637 76.5268 -57.1333 -250.042 381.341
5192 2 -12.1668 -50.6006 -16.4574 -518.831 -447.15 -460.535 29.5491 -60.2463 -127.59 -249.243 258.27
5191 2 -13.7995 -50.3557 -20.46 -481.353 -231.079 -679.388 -43.0119 -40.8345 80.5434 -250.972 425.949
7589 2 -10.5301 -56.955 -14.5405 -391.56 -580.901 -640.276 -95.0099 21.164 44.7623 -257.455 291.639
2452 1 -24.2494 -65.9258 5.93339 986.215 1536.66 797.067 -93.3764 97.3905 -297.449 -888.91 873.453
299 2 -24.1521 -47.7668 -20.7726 -490.267 -338.704 -364.953 -3.43953 -13.9478 -184.488 -262.331 349.87
2695 2 -19.7194 -50.2728 -19.3782 -646.792 -225.159 -579.185 -126.506 -38.053 28.7493 -250.486 456.809
200 2 -22.5173 -49.8984 -16.1741 -609.545 -553.269 -532.854 35.2765 -37.8878 -29.0242 -256.357 123.692
193 1 -24.2474 -48.8856 -19.6133 941.128 685.771 1083.84 -104.067 -62.4248 -44.2138 -806.571 414.8
2689 1 -19.6928 -48.7439 -18.7427 598.166 818.332 1141.75 -1.2764 -40.5258 166.972 -816.534 559.327
195 1 -22.2262 -48.6173 -17.1125 862.493 950.257 935.86 33.019 164.476 69.0782 -811.533 324.638
198 2 -20.7181 -48.6105 -17.5047 -490.963 -467.975 -479.063 -25.6872 -34.5253 2.83001 -266.287 77.3047
201 2 -23.1934 -48.7241 -18.4337 -264.41 -523.327 -406.191 -19.7371 181.008 -52.3541 -263.095 397.635
204 2 -22.5778 -47.2926 -16.1919 -625.23 -333.058 -363.421 -49.5933 -62.9631 257.259 -248.379 543.354
2795 2 -19.92 -47.6308 -19.8245 -560.717 -309.581 -495.649 122.986 -94.9867 -133.882 -260.942 420.927
290 1 -22.3475 -46.3535 -14.9021 874.403 794.662 990.651 19.8972 19.2505 5.42389 -825.14 177.566
295 2 -23.9811 -45.2388 -20.3261 -563.039 -358.876 -293.874 13.3184 70.0762 166.153 -255.119 396.564
2791 2 -20.0345 -45.0401 -19.7381 -522.585 -235.449 -240.755 -10.045 -43.3572 232.166 -264.642 498.595
296 2 -22.6992 -44.8827 -15.3877 -508.066 -494.406 -516.119 -78.4843 72.2948 -206.653 -254.989 403.283
294 2 -21.0299 -44.4436 -17.3161 -469.607 -579.241 -492.662 -124.246 -166.103 40.131 -255.27 379.39
297 2 -23.4643 -44.3579 -17.8352 -646.398 -448.736 -484.868 60.5088 -51.7109 163.562 -264.155 364.002
291 1 -22.4356 -43.9625 -16.6782 848.063 796.799 938.807 121.666 -7.29905 85.6828 -813.232 286.542
2785 1 -19.9078 -44.1455 -18.3953 927.597 918.711 1063.17 18.7297 191.53 42.0636 -812.804 368.885
289 1 -24.3704 -44.2205 -19.1075 745.042 1030.53 744.743 -44.3345 8.54955 -87.4972 -817.82 332.676
2891 2 -20.0829 -42.5682 -18.7898 -535.831 -230.06 -523.66 24.6793 4.51578 -70.1535 -258.044 326.459
300 2 -22.2661 -42.4461 -16.2263 -461.308 -466.42 -595.255 59.6409 75.2252 121 -262.891 298.083
395 2 -24.287 -42.7044 -19.7302 -587.615 -258.639 -372.226 -39.3775 49.6863 -224.37 -249.712 496.833
2793 2 -18.3737 -44.3318 -17.821 1.41789 -504.015 -553.258 -46.9539 107.529 -37.3178 -254.195 572.936
2789 2 -20.8313 -46.6171 -14.4926 -222.285 -439.66 -540.231 -171.331 59.4977 -20.6131 -258.71 423.303
2794 2 -18.1477 -46.9865 -14.9953 -266.295 -592.166 -584.884 -42.378 -66.8428 87.1453 -254.134 381.374
2697 2 -18.1706 -48.6675 -18.3501 -368.87 -567.845 -727.81 -107.127 -86.9028 -34.6072 -251.5 397.098
2788 1 -19.7451 -46.29 -20.7487 965.59 989.07 978.03 -18.3385 -46.323 14.9667 -813.526 92.3708
7781 2 -10.4431 -46.8377 -14.5377 -217.935 -516.301 -636.237 -39.0517 33.9592 40.8893 -250.106 390.182
5291 2 -13.7785 -47.7826 -20.5584 -518.237 -427.053 -443.972 -27.8058 72.6586 -142.509 -259.435 293.499
2691 1 -16.665 -48.992 -17.8692 771.891 972.433 1121.21 21.4304 167.592 -152.52 -829.755 497.607
5187 1 -12.0386 -49.1785 -17.1557 1004.76 823.879 843.139 75.4481 -108.656 112.759 -831.069 346.763
2694 2 -15.5769 -48.9167 -19.0095 -186.902 -398.217 -590.793 -9.35914 -210.773 42.7272 -253.51 511.321
5185 1 -14.0166 -49.0128 -19.6035 1031.83 595.513 1086.22 -71.8223 -198.289 81.8124 -822.236 608.749
5193 2 -13.1252 -49.1049 -18.2981 -543.375 -504.764 -581.495 19.1188 35.5772 22.2123 -257.694 103.874
5196 2 -12.1641 -48.087 -15.9768 -652.336 -316.7 -471.418 -9.74337 95.7003 118.669 -248.974 393.278
2700 2 -16.3171 -48.0074 -16.6677 -529.06 -644.314 -545.567 -42.4579 -106.411 42.7519 -246.694 237.728
2786 1 -16.6803 -46.8981 -15.5882 1013.53 914.98 851.215 -65.7103 45.7715 -108.21 -834.216 272.817
5282 1 -11.9905 -46.8935 -14.9151 806.671 1122.88 955.098 -65.4656 54.5924 -152.671 -831.804 408.424
2792 2 -16.5057 -45.5108 -16.3618 -527.317 -383.225 -434.712 56.378 57.4562 -171.283 -248.629 351.351
5288 2 -12.4395 -45.4297 -15.5937 -512.716 -2.96814 -346.139 -54.5534 64.0486 -214.796 -251.387 601.935
5287 2 -14.0198 -45.1745 -20.4487 -553.911 -551.691 -503.093 -2.04037 -28.6711 25.699 -255.037 83.2735
5289 2 -13.2564 -44.5701 -17.9733 -444.917 -521.995 -372.506 -21.9198 161.878 2.48613 -255.67 311.189
2790 2 -15.7814 -44.3856 -18.5835 -269.33 -534.36 -598.844 -3.41351 -109.325 78.0204 -256.612 381.63
2787 1 -16.8128 -44.2844 -17.398 769.103 1010.78 1162.37 -95.722 90.3014 -2.17085 -829.673 412.297
5283 1 -12.2301 -44.3427 -16.7914 802.983 924.091 949 23.7095 -79.0791 -117.567 -826.769 283.227
5281 1 -14.2879 -44.277 -19.2086 1017.24 870.568 903.047 -16.8033 17.2688 -221.894 -824.522 408.972
2796 2 -16.6697 -42.8051 -16.6912 -480.889 -6.4572 -549.01 -17.5601 -20.2713 147.901 -248.473 574.305
5387 2 -14.119 -42.7583 -19.7959 -566.445 -173.548 -384.762 40.0864 -1.20006 -327.488 -245.537 665.256
5292 2 -12.2855 -42.7982 -16.3506 -526.167 -352.112 -564.441 -25.639 -10.4034 13.6154 -256.359 203.161
5285 2 -15.507 -47.0682 -14.4309 -175.472 -647.413 -648.427 -36.7675 143.313 -90.2187 -244.874 559.73
5286 2 -10.753 -44.559 -17.3815 -411.829 -566.159 -643.496 90.247 -47.9019 13.3367 -251.95 271.266
5190 2 -10.5649 -48.915 -17.8015 -288.465 -532.37 -810.436 74.1113 43.4504 -56.4879 -249.485 486.154
10 2 -23.5071 -60.9638 -13.9108 -555.876 -599.336 -648.918 -9.70213 47.07 11.8596 -258.948 117.699
2512 1 -19.5693 -61.8675 -13.9751 776.158 451.71 1250.37 149.722 -81.9748 -160.247 -806.485 805.264
2424 2 -21.816 -63.598 -9.65532 -579.621 -556.665 -69.9823 -15.2492 -133.411 355.605 -243.585 825.843
21 2 -23.5505 -59.8927 -10.4915 -502.042 -617.928 -631.321 -62.5503 -77.6024 127.81 -244.989 306.547
15 1 -22.0259 -59.9099 -10.0334 901.237 981.796 1109.91 56.3804 17.7743 -43.5818 -836.441 222.274
2509 1 -19.6209 -59.7037 -11.9638 1073.46 685.138 528.895 34.4081 103.922 -231.541 -828.224 657.771
24 2 -21.817 -58.3822 -9.47154 -658.374 -64.068 -541.164 -85.8589 -102.894 83.343 -249.454 609.914
13 1 -24.9336 -59.4808 -11.1396 918.65 1030.01 920.177 224.416 177.51 -142.464 -842.089 564.568
2517 2 -18.5643 -59.4304 -10.8091 -409.596 -658.48 -591.123 -18.931 -35.5773 -14.2283 -249.776 234.938
18 2 -21.0377 -60.1314 -11.3234 -456.397 -517.822 -273.569 -7.66512 -211.71 114.855 -249.437 471.852
2515 2 -19.0655 -60.9126 -12.7789 -706.274 -508.807 -575.699 -16.9201 -13.035 63.061 -253.267 208.704
20 2 -21.9713 -61.1294 -9.00212 -669.71 -197.622 -526.351 156.924 -214.897 -118.986 -241.517 656.225
16 1 -24.8729 -61.5689 -13.3974 925.65 802.334 800.684 -11.1109 140.854 -164.078 -824.58 395.054
14 1 -22.1087 -62.6205 -8.34398 1107.79 1043.54 1092.39 -25.9095 213.264 -91.4109 -846.946 408.538
22 2 -23.5743 -62.9113 -7.80163 -527.884 -576.566 -467.393 99.9572 -220.151 -91.7402 -246.083 457.816
23 2 -24.6229 -63.083 -12.8921 -588.278 -284.449 -613.197 -51.8415 8.74952 -29.827 -251.303 333.864
2519 2 -19.7359 -63.2967 -13.329 -526.156 -397.831 -518.208 -44.938 -40.3062 -107.981 -264.766 247.835
2413 1 -24.6953 -64.5412 -12.2192 859.827 877.998 970.242 64.5734 -73.8069 -39.3303 -820.438 209.78
4909 1 -19.4519 -64.7105 -12.5849 923.386 862.269 945.051 16.8521 39.0581 -143.883 -800.549 270.304
2415 1 -21.9542 -64.8981 -10.6162 1184.1 1016.23 603.475 -92.1218 188.835 196.535 -821.16 718.437
2421 2 -23.3992 -64.8065 -11.3875 -359.283 -581.753 -387.951 66.6296 74.6712 57.6513 -259.23 289.748
2418 2 -20.7092 -65.0986 -11.6712 -196.445 -523.924 -318.022 -43.6586 -264.249 127.901 -262.391 588.631
2419 2 -24.9911 -65.5883 -13.4186 -426.428 -330.061 -113.275 12.6448 44.9551 242.011 -279.791 509.338
4915 2 -19.2447 -65.859 -13.7497 -521.846 -243.401 -252.226 -20.0637 -82.1789 371.848 -277.794 715.145
4917 2 -18.1515 -64.5703 -11.6583 -468.96 -565.514 -544.85 16.1474 47.3453 125.828 -263.512 250.518
2615 2 -19.7839 -58.3903 -12.807 -555.315 -126.718 -359.639 70.7322 -146.072 -86.4728 -257.452 489.46
2420 2 -21.3265 -65.3321 -7.22323 -104.607 -1066.03 -562.592 45.2185 99.0896 72.0947 -227.905 863.102
2513 2 -21.0133 -62.61 -7.15477 -378.541 -807.337 -316.297 0.761116 80.9325 122.002 -242.289 527.955
131 2 -24.8331 -58.3958 -7.00577 -609.053 0.310524 -456.848 -69.4567 -8.60349 -150.035 -242.883 619.652
19 2 -25.3813 -60.6473 -12.2284 -698.199 -379.795 -470.907 0.625284 66.3829 187.18 -239.709 446.096
7410 2 -10.437 -64.8332 -11.3106 -307.736 -592.645 -567.155 59.9821 10.6113 78.0261 -257.595 322.422
5008 1 -14.6656 -62.2483 -13.6793 800.401 1065.8 1143.27 -43.7664 -230.514 -5.30977 -807.491 512.092
4916 2 -16.1855 -65.2523 -7.50661 -61.3916 -956.792 -602.181 21.9909 -46.3106 49.698 -240.065 790.738
4914 2 -15.7205 -64.7847 -10.8168 -424.447 -527.648 -547.638 -107.583 -122.794 124.878 -260.035 373.971
7405 1 -14.4789 -64.8981 -11.8106 725.065 867.181 1129.17 13.5093 72.6764 -286.34 -808.042 623.245
5015 2 -14.7347 -63.7487 -12.9634 -485.735 113.187 -536.027 -15.7902 41.7185 -156.893 -256.888 686.421
7416 2 -11.5908 -63.5023 -9.4273 -650.388 -407.68 -436.051 52.17 21.1371 253.576 -235.228 505.208
5014 2 -13.3265 -62.5955 -7.74469 -40.048 -537.125 -625.02 77.3188 -78.7196 55.8543 -236.994 586.844
5006 1 -11.749 -62.4048 -8.18785 1103.52 1174.82 1249.48 15.9977 28.1606 -244.827 -849.639 446.038
2510 1 -17.3812 -62.3046 -8.13076 919.578 900.652 1238.51 40.134 218.873 -88.338 -844.728 529.216
5011 2 -14.5326 -61.0271 -12.5948 -431.728 72.0133 -214.901 -63.8075 -102.044 406.656 -260.189 855.047
5012 2 -11.6289 -60.9775 -8.97714 -484.006 -340.033 -340.648 -49.1814 53.7533 -200.01 -245.578 395.697
2514 2 -15.9951 -60.1243 -10.4942 -268.154 -463.287 -402.398 -99.7136 -194.359 139.979 -252.52 481.497
5013 2 -13.3974 -59.7682 -10.5838 -607.63 -615.749 -676.699 -23.4433 -20.9997 77.7606 -249.398 159.335
2511 1 -17.3822 -59.6466 -9.75259 1044.61 881.043 918.703 -68.5509 4.21225 -156.83 -829.494 331.588
5007 1 -11.8914 -59.836 -10.0876 800.552 1002.93 1112.94 -66.3534 -44.3102 -164.018 -839.897 418.48
5005 1 -14.7065 -59.8283 -11.4215 653.658 996.784 1137.41 44.3949 -112.252 -38.7659 -825.36 483.723
2516 2 -17.7157 -60.9166 -8.79959 -642.555 -329.737 -542.694 25.6559 -58.8808 -43.8205 -248.297 307.774
4920 2 -17.561 -63.4429 -9.36442 -492.028 -296.055 -243.014 65.7431 -86.8204 359.896 -248.808 689.76
5010 2 -10.9199 -60.0593 -11.3583 -521.288 -535.539 -398.865 -16.3002 -159.634 89.3429 -250.145 343.698
4911 1 -17.2464 -64.6478 -10.3912 840.377 1104.11 583.065 18.7971 -26.1546 -10.4338 -820.764 455.041
7407 1 -11.6979 -64.7862 -10.3692 632.46 1125.3 668.47 -132.388 -63.1027 -119.695 -836.878 577.881
7413 2 -13.0753 -64.616 -11.098 -427.884 -586.969 -633.298 -5.04 -44.5771 33.7074 -256.645 210.407
5009 2 -15.9847 -62.1908 -7.38473 -568.635 -623.663 -475.638 -10.751 125.766 203.835 -240.44 435.015
7412 2 -11.0411 -65.3949 -7.05941 17.1366 -933.237 -593.104 5.9732 206.738 0.138488 -215.801 907.731
7505 2 -10.6888 -62.5231 -6.97049 -166.421 -765.694 -162.342 -54.727 342.922 179.984 -237.538 905.839
5111 2 -14.8138 -58.3825 -12.1077 -565.78 -185.604 -663.594 105.418 -108.548 25.6254 -251.773 511.805
5016 2 -11.577 -58.3243 -9.5431 -587.235 -48.6398 -592.514 67.6638 5.13384 135.159 -242.761 601.31
4824 2 -17.6141 -65.9907 -9.53584 -635.428 -470.446 -276.56 -46.6945 -13.3912 -176.353 -248.604 444.048