ITEM: TIMESTEP
1140000
ITEM: NUMBER OF ATOMS
29952
ITEM: BOX BOUNDS pp pp pp
-2.5615833775063237e+01 3.5601128117061187e+01
-9.9353792287311322e+01 1.0933908662151006e+02
-2.1035324467156940e+01 3.4903177627851115e+01
ITEM: ATOMS id type x y z v_StrAtomXX v_StrAtomYY v_StrAtomZZ v_StrAtomXY v_StrAtomXZ v_StrAtomYZ c_PEAtom v_VMS
2416 1 -24.9778 -66.9888 -14.7004 461.027 1107.35 1226.74 -40.2038 -30.0665 92.6943 -743.216 736.539
2402 1 -21.988 -67.0463 -15.8839 589.974 1097.6 1318.31 199.218 187.543 295.892 -758.182 951.667
2486 1 -20.9529 -67.2942 -18.8501 1181.94 948.239 903.882 144.731 -82.2624 -24.4831 -772.394 389.729
2410 2 -23.5372 -67.1316 -15.4122 343.331 -520.914 -660.373 -117.91 -208.009 -175.45 -286.863 1072.73
2316 2 -21.7646 -67.5686 -17.4707 -529.22 -451.133 81.6374 -61.9661 -163.917 18.183 -269.728 651.661
4912 1 -19.3344 -67.7678 -14.5039 353.884 825.532 1222.19 455.011 123.622 40.9899 -734.219 1113.04
2494 2 -21.8813 -67.6335 -20.1662 -26.8575 -441.861 43.1625 -1.42906 602.229 -105.218 -274.772 1152.15
4904 2 -18.3575 -68.041 -15.9721 -128.617 -475.526 -336.576 -466.351 41.9376 57.2779 -313.94 871.217
4901 2 -20.8422 -67.8396 -14.9851 114.014 -384.82 -490.001 -283.923 173.534 -222.867 -288.479 890.816
2400 2 -19.4528 -67.9486 -18.4724 168.938 -533.497 -266.719 -269.111 478.415 -115.946 -272.473 1149.53
4900 1 -18.0472 -67.8795 -17.6164 977.035 727.916 960.873 295.873 -104.896 394.635 -755.567 906.166
7394 1 -11.8347 -67.3768 -15.7032 877.34 329.636 1253.61 -123.603 81.4819 526.466 -750.01 1242.94
7402 2 -13.2533 -67.0978 -14.9541 181.4 -369.161 -818.952 16.2759 -171.96 47.523 -279.466 921.6
7397 2 -15.9547 -67.9365 -14.6297 89.2461 -496.195 -553.101 161.835 215.621 23.4892 -297.05 773.951
4898 1 -17.1198 -68.9109 -15.0038 396.856 821.38 1240.23 325.94 -62.6448 -51.7265 -718.824 933.795
4990 2 -16.7972 -68.8495 -17.7127 1.88511 -296.027 -571.964 -313.54 242.539 -199.764 -273.227 915.54
7486 2 -11.7648 -69.0984 -15.8321 81.1877 -22.4709 -1114.05 -250.695 -31.2393 -133.882 -316.069 1249.27
7396 1 -13.1385 -70.0483 -15.4389 396.489 327.45 2033.88 -17.7938 8.82085 -55.5676 -725.251 1676.1
7481 2 -14.2971 -69.9677 -16.5616 276.611 -164.359 -769.326 -175.369 546.863 -177.526 -269.169 1382.46
4812 2 -16.5881 -70.203 -15.7378 -581.554 -190.61 -755.297 -201.17 -23.9643 167.818 -272.68 677.176
7478 1 -10.6421 -70.2893 -15.1262 393.701 396.757 2086.57 72.4961 -125.754 136.61 -728.789 1726.22
4982 1 -15.8928 -70.2166 -17.1769 910.972 590.543 1462.22 168.242 144.385 -68.6949 -803.212 863.018
7392 2 -11.9752 -71.1724 -15.0883 355.449 -241.853 -864.033 -217.551 103.894 -14.431 -273.21 1136
4896 2 -15.8772 -71.3508 -18.2078 -322.828 135.196 -427.997 -49.7228 -13.4566 68.3751 -171.599 539.447
7399 2 -13.8645 -69.3091 -14.1847 -265.578 -184.812 -746.398 -272.608 -324.365 262.242 -278.826 1010.66
7408 1 -14.424 -67.7995 -14.0307 588.254 852.671 1373.98 153.933 212.323 -249.085 -758.863 933.801
7400 2 -11.9081 -66.6186 -17.0213 -554.529 -249.25 -675.377 8.87413 135.213 -350.918 -278.243 754.457
2825 2 -20.6901 -47.2375 5.98751 -443.084 -716.277 -440.786 26.8524 82.3098 -14.3607 -236.489 313.646
4985 2 -20.5137 -65.7188 -18.9276 -489.302 -137.74 -485.535 167.641 -41.5532 49.9289 -280.277 468.247
2407 2 -23.5536 -65.773 -20.0855 -389.593 -511.869 -227.726 -164.95 -218.508 149.933 -270.063 594.346
2408 2 -21.5887 -65.4633 -15.9889 -366.537 -160.259 -527.639 -90.902 -66.4347 -254.236 -283.018 577.645
2401 1 -24.3383 -64.8516 -18.9899 656.192 995.847 644.043 9.754 128.9 229.835 -782.018 572.925
2409 2 -23.3442 -64.7734 -17.7117 -297.642 -631.695 -532.819 11.2398 -28.4842 -67.7138 -283.737 323.893
4897 1 -20.0896 -64.1347 -18.7639 465.325 1006.21 848.134 -1.04764 222.938 480.009 -758.092 1035.56
2403 1 -22.2221 -64.1859 -16.7692 718.586 846.689 883.548 128.251 131.808 -71.7346 -763.216 373.354
4905 2 -18.5494 -64.0684 -18.3844 -351.175 -656.869 -618.326 36.4342 -36.3502 -77.1856 -285.357 330.108
2406 2 -21.0307 -63.4884 -17.6631 -172.636 -465.947 -388.279 37.0356 -205.665 -115.701 -285.943 490.359
11 2 -24.4634 -63.4419 -19.6248 -363.149 -694.5 -286.423 42.3462 -91.9845 -141.949 -274.721 481.991
2507 2 -20.2511 -63.4656 -20.2124 -504.503 -609.671 -388.199 -14.6691 -64.3925 -61.2633 -282.249 247.311
2412 2 -22.7486 -63.1502 -15.6786 -512.794 -496.65 -458.097 -60.5747 -83.3528 155.006 -270.526 326.038
2501 2 -20.9728 -61.9736 -14.3144 -481.46 -487.327 -664.773 -65.6301 -38.908 90.5619 -264.975 273.186
2 1 -22.4656 -61.7808 -14.8952 749.333 675.278 891.189 105.174 128.719 -34.0269 -809.593 349.966
8 2 -22.4609 -60.633 -15.9495 -666.697 -512.812 -672.621 -49.3358 -7.41066 30.6248 -256.224 186.836
2503 2 -19.91 -60.9021 -19.9277 -521.448 -468.081 -394.326 -80.5918 -87.7503 82.1416 -276.145 273.955
7 2 -24.3466 -61.031 -20.3453 -526.574 -794.96 -758.897 -78.8074 64.1504 -81.713 -265.575 338.617
2506 2 -18.4924 -62.4369 -15.1097 -256.448 -367.982 -382.078 -36.8799 -275.648 58.1001 -271.655 506.324
4903 2 -17.558 -66.3521 -17.812 -461.645 -59.7842 -633.294 113.972 -97.5826 -257.061 -271.36 725.06
7401 2 -13.7134 -65.6382 -18.8197 52.5868 -586.373 -173.681 64.4158 465.343 -96.0043 -269.892 1002.31
7395 1 -12.2641 -65.3769 -18.0433 859.965 982.488 976.097 -55.3125 -26.4304 402.951 -778.365 715.997
7398 2 -11.1522 -65.2893 -19.19 -190.618 -678.473 -285.396 -81.1273 -212.35 -110.575 -279.84 626.458
7393 1 -14.7961 -65.0859 -19.9372 653.741 1024.84 1007.08 41.2443 161.215 310.878 -762.087 710.247
4899 1 -17.1945 -64.7363 -17.9594 404.02 993.9 1028.77 47.6339 86.1616 50.2658 -774.262 637.496
4902 2 -16.0707 -64.6615 -19.1025 -376.108 -564.525 -430.523 -26.9667 -192.268 -57.0794 -282.14 388.672
4908 2 -16.8269 -64.2248 -16.4821 -350.613 -336.786 -201.44 -72.6441 -125.343 218.114 -271.926 475.464
7404 2 -12.408 -64.1578 -16.985 -391.495 -405.402 -148.799 -3.71567 19.4965 184.511 -274.179 407.166
5003 2 -13.9811 -63.7437 -20.4283 -299.845 -220.014 -596.139 162.691 -110.51 -96.2438 -280.647 511.516
4994 1 -12.0853 -63.1539 -15.7424 850.123 795.223 1173.4 41.4405 -146.537 -37.1126 -799.997 446.067
5002 2 -13.3719 -63.0933 -14.694 -130.618 -410.44 -304.443 -75.4755 -305.238 124.941 -265.213 635.063
4997 2 -15.9421 -62.6487 -14.5245 -170.865 -472.011 -492.077 47.1444 217.219 -91.2699 -262.92 519.947
2498 1 -17.0558 -62.7652 -15.7031 847.266 983.937 944.098 -206.88 36.7783 44.3442 -785.816 391.378
5000 2 -11.9299 -61.6421 -16.3465 -519.918 -204.368 -564.565 -4.32447 43.8251 -57.6007 -261.791 362.526
2504 2 -16.6955 -61.7148 -16.8785 -507.115 -392.703 -514.439 88.3836 1.84955 -8.04146 -268.875 193.961
4999 2 -13.3127 -61.2016 -19.7938 -456.211 -441.549 -573.957 58.9507 -80.465 119.455 -274.537 297.429
7493 2 -10.7069 -63.4071 -15.0317 -167.856 -557.542 -508.525 155.199 237.274 121.679 -264.33 648.639
5332 1 -14.1564 -47.1795 6.46688 927.288 1303.81 885.586 -57.2747 118.042 -177.336 -841.175 552.45
9 2 -23.259 -59.8947 -18.246 -370.808 -442.455 -624.323 -15.1279 -39.8951 155.348 -268.263 359.304
2497 1 -19.6733 -59.8222 -18.7911 604.815 665.871 1181.7 130.68 31.6399 -185.783 -807.96 677.56
6 2 -20.7121 -59.8144 -17.5835 -389.61 -443.895 -524.511 -154.753 -48.8502 92.6398 -262.966 344.345
1 1 -24.3736 -59.7785 -19.4056 724.525 621.513 879.393 219.223 120.249 -141.315 -804.195 545.907
3 1 -22.2269 -59.5383 -17.1078 878.633 875.643 715.496 100.758 123.978 -91.4811 -806.658 357.505
2603 2 -19.6474 -58.3885 -19.5573 -529.576 -311.532 -532.197 78.8123 -115.085 -150.654 -254.184 417.827
107 2 -24.0368 -58.4433 -20.2265 -433.762 -372.919 -463.872 -40.5286 -66.3058 -172.381 -261.953 337.2
12 2 -22.3184 -58.1065 -16.3985 -551.716 -399.142 -239.271 16.3631 -61.1313 283.682 -261.991 571.551
2597 2 -20.7136 -57.4831 -14.4624 -242.523 -437.219 -653.507 -47.7489 125.908 30.3452 -254.479 428.904
98 1 -22.2731 -57.3076 -14.9681 960.74 852.456 1144.15 -58.8363 41.0036 -55.5101 -810.93 299.831
2596 1 -19.6898 -57.0055 -20.3982 935.966 704.153 827.356 34.3002 258.965 -186.731 -814.844 591.337
2599 2 -20.211 -55.8747 -19.4798 -627.154 -496.238 -561.553 108.074 15.5759 45.7918 -256.562 234.334
103 2 -24.7826 -55.9809 -20.0121 -629.053 -549.364 -526.26 -1.29891 229.521 26.3079 -251.821 410.909
104 2 -22.6677 -55.789 -15.2818 -465.148 -291.961 -563.295 28.9605 27.3251 -162.608 -257.56 375.106
105 2 -23.69 -55.0858 -17.5969 -382.747 -568.365 -471.426 33.2709 93.9494 109.704 -254.65 302.924
97 1 -24.8134 -54.964 -18.7635 809.851 756.743 964.891 111.292 222.402 54.8671 -828.659 479.238
102 2 -21.122 -54.9503 -17.2036 -310.633 -550.471 -577.178 -87.5655 -112.379 105.068 -259.402 398.308
2593 1 -19.8807 -54.912 -18.2035 832.972 726.277 960.102 7.35524 148.396 47.3903 -814.787 337.748
99 1 -22.5691 -54.7511 -16.5195 843.295 682.875 1144.29 -61.2432 -66.7276 -44.1388 -820.583 441.674
2601 2 -18.4719 -55.3611 -17.5968 -204.493 -511.334 -551.704 53.7412 17.507 87.6613 -260.061 375.24
2505 2 -18.1948 -60.0301 -18.229 -180.844 -463.039 -604.919 17.2329 121.498 46.1056 -260.866 437.442
2602 2 -18.2131 -58.1001 -14.7325 -375.357 -440.15 -445.585 60.2799 -160.728 -6.63743 -254.701 305.145
106 2 -23.2597 -57.9252 -13.8623 -341.281 -582.907 -359.363 70.665 -188.406 -1.85846 -256.474 419.312
2499 1 -16.7358 -60.2652 -17.5199 815.102 864.731 1087.88 -107.663 113.508 95.7526 -805.029 405.296
2502 2 -15.4946 -60.1954 -18.5173 -121.445 -566.553 -701.091 -38.458 -114.811 109.571 -264.004 596.745
4995 1 -11.8994 -60.1044 -16.7781 741.897 906.142 930.72 -173.611 -64.03 -42.8425 -805.601 373.959
4993 1 -13.986 -59.9662 -19.0672 1000.93 635.459 927.192 -185.176 5.06085 -252.559 -793.074 637.466
5001 2 -13.0066 -59.6873 -17.8359 -407.041 -498.889 -534.611 46.4809 99.9192 -158.492 -268.495 353.249
2508 2 -16.5461 -59.0744 -16.3892 -564.512 -220.577 -501.951 48.6401 58.0253 171.095 -256.545 453.549
5004 2 -12.059 -59.0606 -15.5365 -502.032 -191.764 -527.199 -24.27 -36.0513 193.844 -261.354 472.335
5099 2 -14.172 -58.8054 -20.1999 -527.565 -270.317 -336.821 44.3098 108.236 -207.423 -261.465 472.863
2594 1 -16.7523 -57.8648 -15.3863 823.09 827.238 771.982 142.391 -63.644 -157.844 -824.907 388.024
5090 1 -12.0342 -57.7279 -14.6521 649.933 1115.12 1041.27 -15.8752 -43.2136 -207.608 -815.698 568.47
2600 2 -16.6736 -56.4634 -16.1813 -578.411 -363.507 -595.041 23.0973 -92.084 -4.2963 -253.96 277.72
5096 2 -12.4041 -56.3293 -15.4423 -608.177 74.6145 -430.282 -31.8556 3.52057 -140.244 -257.701 662.173
5095 2 -14.0469 -56.264 -19.9712 -676.482 -412.932 -577.3 -50.2039 40.867 56.4615 -262.43 274.393
2598 2 -15.8805 -55.4463 -18.4408 -157.635 -501.947 -614.947 88.7612 -196.493 -106.958 -247.961 586.524
5097 2 -13.4669 -55.1414 -17.5864 -245.211 -526.848 -180.652 -40.6724 192.758 11.0607 -261.24 467.404
2595 1 -16.8934 -55.2778 -17.2036 848.633 646.435 1085.12 71.0387 33.6387 -0.133243 -823.154 403.935
5091 1 -12.2756 -55.0737 -16.467 972.027 1049.56 967.955 -52.6041 134.398 -36.0745 -815.336 269.699
5089 1 -14.3496 -55.0901 -18.9617 940.617 888.561 987.36 137.965 61.8684 -88.6071 -809.97 315.385
2604 2 -16.5703 -53.8568 -16.5896 -429.851 -424.716 -560.944 2.163 -9.17915 121.982 -261.507 250.579
5094 2 -10.8137 -55.2073 -17.0799 -128.71 -507.308 -544.248 116.379 -77.4547 -22.193 -259.737 467.754
5093 2 -15.6425 -57.8703 -14.2921 -343.789 -694.194 -800.019 -32.1656 -64.9554 -32.6163 -253.488 435.909
5100 2 -12.3124 -53.5414 -15.8452 -548.22 18.2055 -580.242 35.1956 -40.3743 47.3881 -252.796 596.108
7589 2 -10.5376 -57.5376 -14.1607 -210.865 -691.311 -583.656 7.75814 62.4509 77.6138 -252.521 469.732
203 2 -24.5393 -53.5412 -19.4185 -528.513 -523.378 -664.211 2.04873 -73.7255 -89.0298 -246.6 243.382
299 2 -24.2776 -48.4584 -20.763 -435.785 -340.498 -319.603 4.30659 -45.7902 -262.161 -258.822 473.326
2699 2 -19.7692 -53.4194 -18.6811 -689.657 -543.514 -787.172 -66.8286 60.6455 97.6408 -255.818 313.291
108 2 -22.8085 -53.2549 -16.0133 -430.323 -416 -655.376 -110.18 -73.4374 110.916 -255.994 378.923
196 1 -24.4197 -52.459 -20.5843 776.364 527.893 1133.7 27.1173 38.6226 -14.5256 -837.284 534.347
2704 1 -19.3828 -52.2445 -14.3011 744.38 992.764 973.196 59.0024 -15.6866 -182.872 -822.209 410.762
2692 1 -19.6748 -52.4138 -19.8644 896.159 616.396 708.444 -94.2626 119.085 89.0625 -818.637 392.409
2693 2 -20.884 -52.0407 -14.7904 -441.095 -506.385 -687.136 -72.8898 -33.0529 38.6719 -257.84 269.143
194 1 -22.3356 -51.8748 -15.3629 616.644 767.052 1274.47 115.116 -20.2987 -1.00593 -826.827 630.405
202 2 -23.4195 -51.5383 -14.1714 -142.101 -539.393 -395.742 -2.61992 -220.266 16.0995 -249.478 517.45
199 2 -24.136 -51.031 -20.0439 -562.224 -584.999 -694.045 -58.1319 -2.03409 -56.6375 -254.795 186.191
2695 2 -20.0183 -50.8872 -19.5232 -508.283 -411.125 -609.039 -132.122 -90.6361 28.7682 -255.433 329.965
200 2 -22.3 -50.7296 -16.485 -491.376 -317.67 -401.072 -21.2284 -39.7725 -221.548 -249.912 419.511
2689 1 -19.7318 -49.4111 -18.9771 744.514 699.569 1249.68 80.7675 20.3154 92.6911 -818.212 571.405
198 2 -20.8687 -49.0259 -17.8642 -207.179 -515.451 -501.937 -74.3904 -166.252 47.3606 -257.318 444.183
193 1 -24.4346 -49.5451 -19.5435 820.953 858.445 1025.08 -9.24157 -2.18067 -55.6135 -812.875 212.056
201 2 -23.4367 -49.201 -18.3441 -443.426 -561.378 -564.537 -22.8817 15.7323 -35.5327 -262.745 142.815
195 1 -22.3182 -49.2601 -17.2511 798.119 1078.62 772.702 29.7499 -34.5109 -122.925 -822.791 371.509
204 2 -22.6128 -48.2268 -16.0526 -558.992 -637.658 -449.396 -35.7461 -55.0461 27.5466 -253.722 204.99
2795 2 -19.8247 -48.3784 -20.1999 -538.208 -386.604 -408.661 -18.3822 18.8372 -151.311 -256.268 301.479
2789 2 -20.8285 -47.5684 -14.2172 -72.7745 -545.439 -553.661 -59.2312 140.871 50.4783 -244.938 552.33
2782 2 -18.1941 -52.5858 -20.4117 -455.318 -447.43 -501.612 -43.1511 -47.4945 66.4145 -262.794 167.799
2698 2 -18.285 -52.0902 -15.4726 -201.483 -456.302 -543.65 -53.4022 -139.812 41.641 -257.095 408.926
2697 2 -18.2335 -49.4404 -18.4023 -115.536 -430.978 -549.999 -178.172 107.005 -15.2606 -260.263 530.564
2794 2 -18.2276 -47.9416 -14.9427 -433.417 -554.751 -320.232 -98.6774 -320.653 66.8997 -245.86 626.386
290 1 -22.3368 -47.3392 -14.7918 985.851 904.605 958.448 -10.6168 84.757 -132.681 -834.899 282.537
5195 2 -14.2371 -53.651 -19.6725 -438.269 -366.345 -465.075 35.8553 -79.242 -115.438 -266.814 265.503
2690 1 -16.7904 -52.3459 -16.0637 899.543 839.417 975.234 -134.159 -66.6658 59.2259 -816.093 302.898
7685 2 -10.6455 -52.0632 -14.6612 -232.936 -584.116 -651.683 -53.0433 -60.7154 66.1679 -251.613 429.25
5189 2 -15.7397 -51.9854 -14.9184 -409.22 -571.19 -479.442 51.4041 85.7364 58.4886 -260.458 245.018
5186 1 -12.1124 -52.0362 -15.2721 545.141 989.539 1025.99 -50.4874 96.6743 -97.6067 -827.512 528.471
2696 2 -16.6428 -51.3227 -17.2843 -501.155 -204.755 -467.057 -39.1378 66.3544 -179.557 -257.225 439.813
5192 2 -12.1706 -50.7909 -16.286 -482.089 -86.57 -458.164 63.0688 12.3386 -123.077 -256.303 453.187
5191 2 -13.9001 -51.0977 -20.0448 -455.568 -262.865 -532.145 -8.23248 56.8605 244.376 -255.203 496.807
2691 1 -16.7155 -49.7875 -17.8775 846.784 1067.36 877.795 22.4986 91.704 -149.162 -818.415 369.151
2694 2 -15.5812 -49.5008 -18.9331 -387.089 -539.115 -782.937 84.128 3.22776 -130.888 -253.459 438.506
5187 1 -12.0634 -49.3315 -17.0706 1006.29 986.88 839.615 -29.8959 -142.614 -307.33 -822.94 609.897
5185 1 -14.0848 -49.59 -19.4756 764.454 857.804 1071.74 -36.1187 -94.1596 86.1028 -826.989 356.664
5193 2 -13.116 -49.2479 -18.2623 -527.457 -499.657 -500.546 9.43442 115.545 26.9897 -257.01 207.974
5196 2 -12.2421 -48.2018 -16.0049 -596.834 -478.188 -434.204 18.3876 49.0241 146.077 -254.22 305.729
2700 2 -16.3629 -48.7411 -16.7326 -510.007 -317.841 -571.431 0.692919 65.4364 148.137 -252.679 362.195
2786 1 -16.7923 -47.6911 -15.5655 877.72 983.098 976.806 -30.2611 -62.2535 -54.3261 -829.762 183.6
5282 1 -12.0807 -47.2659 -14.6616 972.446 976.328 1050.77 29.198 -87.7616 9.88105 -811.088 178.334
5285 2 -15.8675 -47.7954 -14.2334 -554.725 -571.391 -307.288 -29.2206 107.471 73.2438 -247.553 344.866
5291 2 -13.8422 -48.5648 -20.6929 -535.35 -402.021 -555.415 44.2872 -4.29973 -168.855 -246.615 335.157
5190 2 -10.5807 -49.2117 -17.7924 -188.155 -459.829 -493.978 58.1439 -186.145 11.6772 -253.161 445.816
7781 2 -10.5567 -47.4845 -14.1466 8.19323 -500.937 -569.115 -47.6024 34.9303 30.972 -266.307 558.489
5194 2 -13.2652 -51.8862 -14.2121 -543.348 -587.957 -624.496 109.858 -2.63772 -31.2653 -255.719 210.035
5188 1 -14.2246 -52.5029 -20.7726 711.357 742.221 1378.6 70.2964 -149.731 53.4972 -811.721 718.496
4906 2 -18.3806 -68.912 -13.9552 115.898 -402.703 -860.41 -250.194 -223.739 85.7813 -269.052 1037.23
4913 2 -21.1785 -68.1818 -7.262 -188.473 -732.023 -253.999 67.8866 256.725 -143.984 -227.736 733.394
2328 2 -21.944 -66.8692 -9.62942 -620.511 -419.148 -90.5769 -27.9263 -104.876 -237.666 -255.839 647.657
2414 1 -22.2201 -67.1845 -8.0604 595.035 1264.66 1086.95 40.9215 86.7965 212.175 -799.504 723.642
2422 2 -23.7523 -67.4804 -7.857 -189.569 -345.255 -745.705 -28.8986 -73.5609 -88.821 -267.983 537.912
2428 1 -25.2238 -67.3001 -7.29285 829.039 1201.33 1024.51 -92.1331 72.4665 256.687 -807.048 585.594
4918 2 -18.731 -67.0771 -7.15783 145.358 -384.326 -746.921 -79.2676 -96.0821 -25.632 -266.116 807.847
125 2 -25.7852 -57.9681 -0.502875 -660.08 -585.485 -393.114 31.1588 47.6975 92.8332 -248.695 304.159
7414 2 -13.4868 -67.237 -7.89521 -94.3185 -446.087 -772.319 -21.4831 -186.75 -88.591 -261.372 688.827
4910 1 -17.1862 -67.0512 -7.75689 821.743 1131.01 953.182 115.816 60.0662 254.532 -788.094 563.648
7406 1 -11.9301 -67.1172 -8.12259 487.822 1199.29 1068.85 -236.938 -169.306 164.42 -817.879 875.165
7409 2 -16.0534 -68.1702 -7.4852 -16.3956 -836.944 -459.552 -108.882 32.9096 -47.354 -244.953 742.697
9905 2 -10.887 -68.1117 -7.34794 -58.529 -772.275 -394.732 130.126 429.305 -4.72463 -225.133 993.114
7411 2 -14.3348 -66.9245 -12.6496 -475.767 -179.242 -319 -30.4409 68.4423 430.33 -267.466 799.001
7420 1 -14.8487 -67.2081 -7.06482 348.918 1198.77 1185.84 46.6238 115.298 95.9242 -807.092 886.246
2512 1 -19.5623 -62.4281 -13.8432 679.199 695.323 1037.43 155.5 -62.8608 -302.598 -803.722 694.193
10 2 -23.5841 -61.5921 -13.7891 -398.533 -576.868 -638.821 -70.9399 -104.499 64.0591 -256.624 326.892
4915 2 -19.0743 -66.4207 -13.6894 -466.487 -218.247 -213.327 -15.085 -94.9563 364.865 -281.826 699.986
2419 2 -24.675 -66.0628 -13.4269 -339.698 -392.352 -33.5736 119.632 259.654 236.255 -279.095 724.74
2418 2 -20.4795 -65.7372 -11.5125 -284.664 -619.684 -288.725 -25.9687 -243.839 70.7385 -264.592 553.446
2421 2 -23.1467 -65.27 -11.3095 -268.56 -634.153 -322.056 -32.9662 72.5899 51.6533 -269.47 379.52
2415 1 -21.7388 -65.5346 -10.5422 976.485 1331.35 504.631 13.1252 226.962 130.394 -807.362 849.75
4909 1 -19.2447 -65.2953 -12.4764 882.333 944.461 926.829 11.6374 17.0771 -129.155 -791.941 233.238
2413 1 -24.5017 -65.0997 -12.0898 751.741 1138.25 919.493 140.808 -39.8899 -88.5208 -805.015 447.722
2424 2 -21.4742 -64.3247 -9.49529 -522.466 -397.969 -206.39 -24.8968 -103.559 289.268 -254.052 600.927
2519 2 -19.5911 -63.9012 -13.1666 -408.266 -394.664 -413.91 -86.7882 -22.9266 -148.677 -270.614 301.3
23 2 -24.7111 -63.597 -12.6688 -464.891 -368.187 -503.287 -183.205 10.5575 -78.0901 -258.101 365.869
22 2 -23.3319 -63.6674 -7.69873 -58.5794 -584.475 -336.307 97.8284 -286.014 -5.00845 -247.526 694.148
14 1 -21.8369 -63.2715 -8.27541 1236.01 1273.66 1024.35 71.8061 63.7176 -190.271 -833.588 436.398
16 1 -25.0136 -62.133 -13.2799 887.076 775.538 784.052 58.3823 69.0282 -262.883 -816.631 493.362
20 2 -21.8797 -61.7892 -9.02526 -605.346 -190.556 -501.499 34.6054 -80.2215 -111.957 -247.184 447.506
21 2 -23.4537 -60.5269 -10.5963 -842.665 -603.994 -646.788 -39.7184 -79.8758 74.059 -251.257 298.176
15 1 -21.9954 -60.5631 -10.0115 553.954 814.049 890.564 80.7573 160.111 -50.4302 -837.942 444.417
2509 1 -19.4832 -60.2888 -11.7158 1020.73 988.558 873.045 -107.433 139.37 -254.729 -816.683 552.86
18 2 -20.9187 -60.7117 -11.1327 -501.522 -599.242 -665.69 78.1181 0.155932 70.1861 -252.313 231.394
2515 2 -19.0294 -61.456 -12.7373 -646.488 -452.201 -605.937 -53.5219 -78.8917 136.44 -254.297 338.565
2513 2 -20.6591 -63.2369 -7.16197 -415.505 -767.543 -424.201 -104.855 59.4579 38.5003 -244.333 411.073
2420 2 -21.4117 -66.0557 -7.10718 88.8387 -959.81 -302.934 33.5732 194.241 74.093 -231.997 987.602
19 2 -25.4749 -61.1754 -12.1293 -642.401 -483.994 -437.899 66.7692 76.9456 152.59 -251.209 368.112
2517 2 -18.3601 -60.2748 -10.5523 -333.508 -572.378 -380.138 -78.0746 198.112 -95.1525 -251.499 459.662
5008 1 -14.6075 -62.9357 -13.6467 888.061 887.179 1006.57 -157.986 -85.3234 -218.709 -808.948 504.35
4917 2 -17.9585 -65.2986 -11.505 -401.024 -584.887 -180.272 -41.4116 208.616 78.4034 -269.096 526.567
7320 2 -11.5351 -66.6285 -9.57424 -547.644 -360.918 -554.954 162.824 -82.6715 -188.065 -248.915 492.371
4824 2 -17.4557 -66.7093 -9.30012 -701.259 -311.675 -229.427 -35.1157 7.08404 -251.848 -250.957 620.254
4916 2 -15.9557 -66.036 -7.29821 -29.0239 -827.475 -620.171 32.8095 -104.622 -61.4274 -240.137 749.909
7405 1 -14.3647 -65.5431 -11.8199 889.045 852.631 905.462 27.0228 -41.5258 -147.247 -818.164 273.134
4914 2 -15.5059 -65.586 -10.6483 -150.072 -580.989 -330.248 -86.2519 -260.675 85.9355 -255.94 623.57
4911 1 -17.0578 -65.3657 -10.1827 1083.05 1348.47 639.984 20.9183 37.2437 70.8379 -806.793 636.304
7407 1 -11.4796 -65.2478 -10.4331 667.022 1145.49 772.893 -140.191 91.5179 -134.608 -832.557 572.653
7413 2 -12.8893 -65.2463 -11.2225 -235.841 -639.821 -542.507 91.9129 51.2318 94.8015 -247.799 439.928
4920 2 -17.2073 -64.0877 -9.16308 -527.273 -294.355 -205.201 104.008 7.83126 296.661 -262.098 616.138
5015 2 -14.6864 -64.3518 -12.7889 -530.781 -316.49 -543.769 70.8971 -37.7374 -71.1145 -258.261 288.783
7416 2 -11.4834 -63.9652 -9.51536 -497.625 -521.602 -692.511 -12.2405 -0.588786 77.4059 -248.054 228.709
5014 2 -13.0279 -63.4529 -7.48967 -739.984 -616.304 -520.135 54.056 -178.763 92.9373 -234.324 408.64
2510 1 -16.9821 -63.1355 -7.88197 997.895 1232.19 974.137 -155.234 68.1795 -221.577 -831.018 542.729
5006 1 -11.7393 -63.0407 -8.23094 628.057 1187.37 1046.94 -20.4796 155.708 -345.39 -851.048 828.181
5011 2 -14.566 -61.7846 -12.5828 -598.267 -527.849 -549.314 -30.7511 -107.921 68.8332 -260.176 236.431
2516 2 -17.273 -61.5553 -8.41624 -521.365 35.6367 -401.576 33.0171 -29.6117 -213.442 -245.093 632.812
5012 2 -11.7413 -61.5176 -8.85926 -378.014 -170.858 -299.668 49.203 -51.2358 -272.532 -248.262 520.367
2514 2 -15.8967 -60.899 -10.54 -442.866 -587.089 -495.163 28.7415 -73.9334 120.685 -254.779 280.293
5013 2 -13.2297 -60.502 -10.7869 -527.752 -605.797 -627.893 54.7926 -24.2509 103.111 -255.172 225.766
2511 1 -17.0781 -60.4292 -9.5691 812.916 974.728 1119.88 -18.961 21.4869 -180.419 -830.342 413.349
5007 1 -11.8354 -60.3786 -10.0616 681.466 956.155 1324.52 -59.8121 -62.3076 -284.73 -825.73 760.218
5005 1 -14.6401 -60.6455 -11.4844 837.414 954.422 741.801 -30.5995 4.39531 -246.582 -823.153 468.289
5010 2 -10.698 -60.5531 -11.249 -517.519 -578.823 -423.72 92.2683 -163.446 -62.0993 -249.362 368.185
5009 2 -15.5436 -63.0365 -7.23064 -591.703 -684.572 -417.523 170.108 77.8041 151.958 -250.223 478.94
7412 2 -11.2092 -65.9832 -7.14454 -47.911 -949.185 -464.617 76.4237 285.137 -14.8555 -220.48 934.058
7505 2 -10.5698 -63.1528 -7.10674 -559.58 -815.597 -402.662 -158.592 137.819 48.6442 -233.408 519.497
13 1 -24.8506 -60.0741 -11.085 726.825 859.112 897.429 184.153 121.903 -74.9947 -827.936 432.697
2608 1 -19.3669 -57.7305 -13.6568 733.555 696.174 1257.76 42.0905 -32.7565 -43.9194 -820.596 556.875
24 2 -21.7982 -59.0787 -9.43179 -579.074 -228.042 -624.706 -53.6328 -99.6018 -26.0351 -250.682 426.32
2615 2 -19.6319 -58.906 -12.5733 -459.296 -260.45 -320.417 39.0817 -40.1252 -180.126 -259.731 371.43
119 2 -24.8229 -58.7102 -11.8704 -555.141 -586.068 -503.511 -99.1231 -46.8469 54.2438 -256.356 223.844
112 1 -24.6634 -57.6875 -13.0833 749.501 896.393 729.729 28.9133 -26.9323 -93.2914 -827.543 235.938
124 1 -24.604 -57.503 -7.48058 934.568 1409.21 789.972 156.328 177.542 -12.9177 -825.182 695.127
110 1 -21.9516 -57.5112 -9.05959 992.89 1005.29 1104.39 28.9405 250.105 -85.3863 -823.445 472.49
118 2 -23.4756 -57.2956 -8.58362 -160.99 -684.335 -583.339 -32.6508 -161.871 18.6405 -254.081 560.43
2609 2 -20.8956 -57.3278 -7.76195 -347.856 -633.442 -198.376 -39.4325 176.435 -36.7394 -243.11 498.694
116 2 -21.6533 -56.403 -10.1841 -545.761 -229.878 -519.281 -28.0772 -20.5602 -46.7134 -259.248 319.841
2611 2 -19.0013 -56.3501 -12.9377 -548.967 -404.312 -662.899 20.5002 -47.7803 -50.1004 -259.104 256.955
115 2 -24.5836 -56.1805 -12.5541 -536.064 -439.339 -627.976 -101.949 -57.3477 72.1514 -248.111 288.718
111 1 -21.747 -54.8938 -10.6915 903.069 981.252 1078.71 57.6445 215.315 -2.42464 -827.213 415.087
109 1 -24.6275 -54.7142 -11.8941 629.231 952.848 1176.6 21.3523 -58.2565 -119.099 -835.853 530.386
2605 1 -19.2503 -54.8513 -12.5568 946.972 666.736 891.028 -50.757 139.875 -27.9375 -828.947 367.083
114 2 -20.7481 -54.736 -11.9454 -464.18 -611.296 -452.436 -33.3164 -233.131 119.518 -242.55 482.434
117 2 -23.2443 -54.5609 -11.1788 -464.578 -589.256 -644.627 -72.3443 34.9233 33.8213 -250.392 219.786
120 2 -21.3115 -53.8347 -9.48657 -509.397 -385.949 -523.938 43.0337 -35.5312 147.905 -245.254 303.672
2614 2 -18.3762 -57.5501 -7.44214 -556.68 -701.659 -467.546 35.8908 -96.2049 95.8325 -239.173 317.913
131 2 -24.5837 -59.124 -7.08663 -669.281 -21.4002 -543.594 -91.2777 -95.8342 -99.8109 -245.971 660.72
2613 2 -18.299 -54.5535 -11.2558 -424.315 -640.422 -231.087 -28.2936 164.175 11.0124 -242.348 457.628
2711 2 -19.1748 -53.7028 -13.6017 -541.621 -316.591 -635.085 -94.8018 106.795 10.9274 -259.266 376.752
5016 2 -11.6633 -58.8712 -9.55664 -464.636 -406.746 -694.258 -45.0965 -35.7297 7.45985 -254.496 281.901
5111 2 -14.8608 -59.1754 -12.1708 -680.613 -307.738 -529.836 8.30573 12.5711 68.35 -250.191 346.763
2520 2 -16.8461 -58.918 -9.05023 -516.616 -245.099 -675.613 -66.8406 -76.5268 31.6445 -251.652 419.7
5098 2 -13.1066 -57.9071 -13.4391 -426.535 -595.265 -450.987 12.5888 -34.2966 100.397 -257.841 243.279
5104 1 -14.6271 -57.8837 -13.0548 779.965 811.221 837.811 -150.141 88.5694 -129.924 -824.442 379.891
5102 1 -11.8851 -57.3788 -9.07646 759.208 859.978 923.778 -52.6159 24.857 -127.313 -830.564 281.848
2606 1 -17.0748 -57.4632 -8.43653 682.512 927.245 1101.7 -81.3509 -136.052 -205.821 -834.312 579.219
5110 2 -13.3167 -57.1596 -8.42952 -566.096 -604.199 -388.946 42.3341 -147.98 93.3931 -253.804 369.894
5105 2 -15.7863 -57.172 -7.61511 -486.259 -609.148 -604.161 -121.338 59.8709 -31.6492 -249.862 269.148
5108 2 -11.5495 -56.2754 -10.1953 -482.747 -287.521 -599.848 40.8074 -47.7302 4.26515 -251.945 294.231
2612 2 -17.2816 -56.2528 -9.50737 -472.071 -154.864 -443.634 60.279 -62.3534 -96.6194 -255.787 378.126
5107 2 -15.0138 -56.4594 -12.3966 -511.155 -173.303 -636.655 -35.8246 -60.0567 -5.68052 -250.578 432.506
5103 1 -11.6776 -54.8618 -10.9757 818.624 1084.93 953.016 22.9823 25.8569 -116.162 -825.526 311.867
2607 1 -17.1443 -54.7684 -10.1233 1072.91 1106.43 774.263 45.8677 16.7679 -195.68 -832.137 471.542
5101 1 -14.6998 -54.9032 -12.0297 788.707 959.557 987.105 1.68149 51.6546 -125.585 -824.533 299.973
5109 2 -13.1524 -54.8209 -11.6141 -270.463 -539.022 -508.553 42.2415 54.5417 95.1892 -259.02 326.082
2610 2 -15.7267 -54.5052 -10.8997 -311.941 -602.485 -565.093 103.133 -98.4223 -24.8672 -249.51 371.181
5112 2 -11.4563 -53.6325 -9.95695 -532.126 -455.045 -266.483 -20.8681 61.7642 169.741 -253.607 393.978
5116 1 -14.261 -57.5086 -7.1855 941.65 1056.21 888.566 -79.5761 109.825 -71.2913 -822.847 304.06
7601 2 -10.8195 -57.1437 -7.90302 -359.306 -688.491 -567.914 23.247 83.4545 45.4638 -242.646 334.553
2616 2 -17.2453 -53.6298 -9.01612 -632.412 -453.583 -516.091 39.0131 -14.5282 119.36 -248.483 269.533
2726 1 -17.1086 -52.6318 5.98875 895.385 1255.08 609.046 -160.16 57.7192 -62.374 -851.705 642.636
5207 2 -14.904 -53.8098 -13.2088 -485.445 -44.3539 -512.495 78.8928 32.1584 -189.061 -252.61 579.854
316 1 -24.4835 -47.2641 -7.44287 913.208 831.358 768.331 -68.5097 142.464 -8.70127 -845.103 301.705
2800 1 -19.275 -47.6125 -13.6885 1017.36 860.802 1163.99 22.3338 -58.8879 12.3015 -840.687 285.167
215 2 -24.7043 -53.5123 -13.0063 -536.773 -248.64 -371.28 7.83181 -75.4159 -239.417 -247.967 501.929
214 2 -23.1895 -53.0609 -7.77857 -272.997 -637.937 -462.727 -39.6249 -135.515 86.0358 -243.918 426.554
2705 2 -20.6274 -52.8305 -7.31702 -402.67 -732.127 -581.377 -22.304 16.5124 -29.1933 -237.409 294.056
206 1 -21.7411 -52.7532 -8.43254 954.233 957.497 600.274 6.41765 -74.8466 -171.658 -847.87 481.437
208 1 -24.8697 -52.008 -13.5955 996.401 1144.95 743.653 36.3175 14.3196 -68.1108 -830.168 376.808
212 2 -21.7582 -51.3166 -9.1013 -560.438 -581.999 -559.129 61.5119 -53.3436 69.5211 -246.7 186.767
2707 2 -19.1156 -51.149 -13.175 -603.541 -695.941 -466.177 13.4945 37.3839 61.1589 -249.008 236.769
211 2 -25.1999 -51.0862 -12.2996 -633.456 -538.598 -400.14 -42.0227 -58.5186 105.045 -246.519 299.962
213 2 -23.3785 -50.2053 -10.724 -787.939 -645.249 -684.975 -21.8195 -161.267 71.1105 -250.075 333.002
210 2 -20.8419 -50.4294 -11.3667 -389.373 -677.224 -708.355 19.4195 -36.6537 -37.2307 -243.026 319.545
2701 1 -19.3357 -50.2307 -11.9141 832.925 1024.79 769.441 14.6974 -48.7012 -199.695 -839.175 424.757
207 1 -21.9114 -50.2251 -10.2443 421.117 902.047 1009.36 91.5696 96.1877 -80.7237 -843.727 605.704
205 1 -24.882 -50.0662 -11.1303 619.632 1110.37 920.117 75.4092 37.3631 -121.974 -836.136 499.535
2807 2 -19.2321 -48.7373 -12.5845 -573.739 -450.587 -543.295 40.1143 -59.2599 -144.77 -241.398 300.968
216 2 -21.5855 -48.7165 -9.72455 -492.092 -388.002 -620.42 -10.9112 -24.3022 75.3841 -243.292 244.617
298 2 -23.4111 -47.5084 -13.592 -407.884 -609.308 -368.486 31.8357 -205.647 32.7826 -246.41 428.015
304 1 -24.848 -47.4173 -12.8756 1046.33 923.159 967.707 52.6644 108.917 -29.9287 -835.703 241.379