ITEM: TIMESTEP
660000
ITEM: NUMBER OF ATOMS
29952
ITEM: BOX BOUNDS pp pp pp
-2.5615833775063237e+01 3.5601128117061187e+01
-8.3402744217847300e+01 9.3388038552046027e+01
-2.1035324467156940e+01 3.4903177627851115e+01
ITEM: ATOMS id type x y z v_StrAtomXX v_StrAtomYY v_StrAtomZZ v_StrAtomXY v_StrAtomXZ v_StrAtomYZ c_PEAtom v_VMS
4896 2 -16.5407 -70.6327 -17.7173 -310.557 177.445 -427.451 49.1532 49.9547 117.424 -167.437 604.114
7392 2 -12.2618 -70.2222 -15.1081 422.364 -434.976 -902.093 -163.183 132.231 61.1546 -257.367 1223.63
4812 2 -17.057 -69.2109 -15.3572 -467.219 -407.869 -816.975 -136.245 -174.176 12.3414 -265.809 542.002
7396 1 -13.5431 -69.1768 -15.3095 516.961 274.869 1958.67 -12.8566 -50.2041 -19.3218 -738.49 1579.66
4982 1 -16.3425 -69.3784 -16.831 996.714 520.77 1617.07 268.041 66.9005 39.9926 -806.816 1067.89
7481 2 -14.7068 -69.0859 -16.3495 223.184 -84.7965 -796.931 -88.0231 362.535 -121.256 -279.875 1132.68
7478 1 -10.9645 -69.2711 -15.0447 558.878 427.527 2019.06 64.5348 -131.638 208.295 -750.222 1592.43
2400 2 -19.8042 -67.0717 -18.3733 220.059 -392.889 -151.761 -185.12 664.317 -142.908 -273.155 1331.95
4901 2 -21.1951 -66.995 -14.976 213.757 -549.772 -550.396 -74.5604 144.369 -72.1606 -280.858 823.578
2316 2 -22.0158 -66.7306 -17.4443 -637.863 -569.184 -108.233 -35.6692 -164.876 -44.0847 -265.02 583.138
2494 2 -22.3519 -66.8999 -20.173 99.1992 -340.406 19.3577 -1.9296 697.463 -130.416 -263.624 1294.19
2410 2 -23.8631 -66.5051 -15.3426 168.782 -457.312 -559.981 -66.9467 -290.842 -78.0707 -283.919 867.36
2486 1 -21.3468 -66.5126 -18.8878 1245.8 1107.86 1084.18 86.7721 176.951 46.5287 -771.808 381.933
2402 1 -22.341 -66.3346 -15.8929 542.511 964.691 1277.38 186.831 111.842 187.587 -779.769 809.836
2407 2 -24.0169 -65.0681 -19.9543 -560.91 -562.232 -157.961 -150.173 -194.743 138.925 -263.526 634.218
4985 2 -21.0836 -64.833 -18.9753 -579.834 -26.9507 -570.429 21.1535 -36.527 -5.79476 -271.033 553.186
2408 2 -21.9728 -64.7365 -15.8652 -425.271 -187.883 -705.316 -12.4164 -162.476 -84.1371 -268.649 549.684
2401 1 -24.6263 -64.0901 -18.8204 679.703 1032.33 879.514 151.385 185.145 289.16 -795.542 718.501
2409 2 -23.7533 -63.9997 -17.43 -473.03 -581.527 -322.44 -1.38214 0.784213 -1.08204 -265.777 225.386
4897 1 -20.567 -63.3386 -18.7716 768.254 715.189 1069.04 -129.069 74.0891 405.953 -781.324 818.59
2403 1 -22.5741 -63.3869 -16.5066 890.48 651.599 845.599 122.435 183.75 -138.239 -792.17 501.947
2406 2 -21.4959 -62.751 -17.5228 -261.328 -516.014 -209.169 -46.0389 -281.225 -51.3564 -269.795 576.545
2412 2 -23.0924 -62.3372 -15.4921 -554.612 -373.282 -582.867 -41.6501 12.4768 114.245 -263.536 289.187
11 2 -24.6481 -62.667 -19.4772 -427.027 -659.921 -646.392 -3.33678 -5.49202 -46.3171 -273.637 240.482
4905 2 -19.0321 -63.5378 -18.3018 -197.232 -531.186 -591.881 -61.962 35.9168 -128.244 -274.206 447.444
2507 2 -20.6382 -62.4754 -20.0921 -520.761 -357.807 -447.674 78.6039 -61.1694 -79.804 -276.619 262.398
2416 1 -25.2964 -66.2466 -14.684 414.362 912.893 1219.2 -191.795 -187.476 -71.8229 -759.873 852.255
4912 1 -19.6871 -66.7427 -14.4204 548.007 709.027 1210.3 405.222 190.506 -142.202 -738.782 1009.99
4904 2 -18.5601 -67.0297 -15.7386 -73.5313 -557.549 -163.867 -355.39 110.789 -12.5836 -308.182 784.164
2512 1 -19.7893 -61.4225 -13.8533 782.35 807.851 1104.31 -59.6219 204.202 -235.838 -821.856 631.44
2506 2 -18.7022 -61.4799 -15.0244 -220.982 -516.785 -529.379 -73.0689 -260.495 168.945 -251.774 629.762
4900 1 -18.3768 -67.0136 -17.5394 978.737 611.141 1210.46 104.284 50.3868 382.726 -754.339 868.147
4906 2 -18.7289 -67.8 -13.6502 -18.8205 -421.527 -802.823 -250.044 -37.5258 5.35942 -263.308 808.076
7438 2 -12.7151 -66.6053 5.25219 39.7131 -555.872 -622.661 109.454 -220.502 -63.2676 -229.266 769.918
2459 2 -25.5677 -66.6467 5.40932 -77.1161 -585.878 -438.688 141.454 145.348 50.0349 -224.147 580.117
7399 2 -14.0413 -68.4732 -13.9593 -540.279 -15.1468 -643.333 -218.398 -181.415 253.092 -268.481 880.054
4903 2 -17.7372 -65.5936 -17.6914 -430.191 -274.41 -676.11 200.236 -56.7243 -73.6907 -276.005 518.922
7486 2 -12.1111 -68.188 -15.7368 86.1539 -419.494 -1252.11 -116.734 -66.0125 -98.3747 -295.54 1205.37
5003 2 -14.469 -62.6035 -20.3165 -373.539 -305.012 -481.771 169.02 -56.0192 -165.844 -275.836 448.84
4990 2 -17.2273 -68.1138 -17.4937 37.2068 -460.241 -698.277 -313.289 300.677 -248.615 -266.495 1083.34
4898 1 -17.513 -67.9218 -14.6752 236.401 646.78 1357.31 467.64 183.548 -65.1266 -741.629 1317.08
7394 1 -12.0825 -66.5127 -15.5943 803.705 322.916 1387.01 -40.5779 22.033 339.026 -761.176 1096.84
7402 2 -13.4255 -66.2766 -14.7834 107.817 -450.674 -874.609 194.584 -51.5888 -4.06564 -276.312 921.965
7400 2 -12.3318 -65.8177 -16.9976 -456.877 -567.208 -694.429 -44.585 282.982 -172.302 -275.047 614.539
7401 2 -14.04 -64.7563 -19.009 -30.8288 -567.843 -57.1405 -20.7311 434.266 -195.019 -278.044 977.801
7398 2 -11.456 -64.5804 -18.9576 -207.492 -612.96 -569.671 -7.56012 -179.786 -88.5479 -269.173 519.027
7395 1 -12.7294 -64.683 -17.9764 793.942 717.754 947.56 -79.0633 56.6938 547.231 -782.59 983.813
7393 1 -15.2037 -64.0276 -19.8666 851.719 1111.64 873.672 -17.2141 71.5076 402.878 -765.512 751.995
4899 1 -17.5784 -63.9605 -17.7889 642.204 800.585 1157.58 -11.3631 30.9507 60.5169 -780.412 472.57
4908 2 -17.288 -63.2843 -16.3627 -413.232 -319.914 -441.465 68.0659 47.5867 166.654 -272.345 340.812
7404 2 -12.7791 -63.3931 -16.989 -367.577 -276.5 -377.635 174.477 101.409 178.239 -275.58 476.233
4902 2 -16.4132 -63.6322 -18.866 -205.196 -505.257 -364.015 -52.257 -259.462 -100.201 -276.545 554.869
2498 1 -17.2137 -61.8407 -15.666 893.389 783.001 1074.24 -98.433 -86.621 -83.5859 -803.038 370.666
4994 1 -12.4317 -62.2803 -15.8789 972.56 767.556 1355.86 -106.044 -21.5083 -162.229 -797.155 617.738
5002 2 -13.6393 -62.1448 -14.7535 -313.472 -429.921 -303.258 -96.3359 -248.594 245.616 -259.497 639.589
7397 2 -16.1752 -67.1218 -14.2315 66.4014 -539.336 -667.673 161.074 21.551 -73.6619 -282.171 746.078
4997 2 -16.2007 -61.7787 -14.4121 -317.877 -487.86 -349.241 71.8608 186.022 -11.1101 -260.956 379.764
7493 2 -11.0913 -62.6469 -14.9753 -65.0509 -347.86 -304.378 114.757 426.486 66.1227 -259.377 817.232
9893 2 -10.6098 -66.4206 -14.9199 95.7139 -498.162 -515.054 -261.833 330.819 45.5706 -261.703 950.383
7408 1 -14.6387 -66.9281 -13.8437 777.532 802.86 1008.1 69.0707 36.6346 -397.114 -775.061 734.438
7308 2 -10.672 -68.3697 -13.7022 -585.091 -94.1661 -732.189 192.229 207.932 521.241 -253.251 1179.19
2428 1 -25.2758 -66.3932 -7.06328 775.493 1111.54 810.794 -28.6792 178.112 -89.3649 -813.108 473.19
4915 2 -19.5305 -65.414 -13.653 -479.171 -660.904 -299.092 15.8707 -124.004 260.457 -276.48 590.409
2519 2 -19.7357 -62.9203 -13.2707 -494.266 -500.154 -731.983 -93.8281 23.6798 -7.857 -252.283 288.83
2419 2 -25.2355 -65.2003 -13.5135 -405.738 -502.391 -237.095 10.5794 45.9053 129.033 -277.428 332.698
2422 2 -23.9017 -66.2729 -7.81368 -277.793 -384.073 -713.822 -28.1631 -142.153 -51.2861 -265.001 475.361
2414 1 -22.3337 -66.2918 -8.09809 889.607 1046.14 704.809 56.5527 -30.5876 166.749 -811.077 428.247
2328 2 -21.9791 -65.8955 -9.57307 -624.824 -447.334 -410.006 -61.1215 -95.3929 -314.528 -249.114 612.219
2415 1 -22.2492 -64.6087 -10.561 1100.77 978.632 524.67 -22.619 123.847 -78.8063 -823.391 585.342
2421 2 -23.5785 -64.6859 -11.4058 -460.679 -517.919 -239.843 -26.6696 206.018 -29.6246 -260.064 443.602
2418 2 -20.9903 -64.4885 -11.6084 -462.362 -538.346 -370.164 -65.3135 -217.867 74.3424 -254.371 439.381
4909 1 -19.6978 -64.2915 -12.493 892.479 663.087 965.199 77.9522 100.192 -131.195 -819.909 417.818
2413 1 -24.9781 -64.3178 -12.1796 975.64 861.696 1017.11 -57.3542 11.7812 -103.09 -819.786 248.185
23 2 -25.0212 -62.8032 -12.646 -503.819 -225.262 -631.987 -42.8167 34.7873 -89.881 -251.335 403.843
2424 2 -22.216 -63.4095 -9.56726 -708.502 -610.491 -423.138 38.2561 -23.8197 50.5808 -250.772 277.196
14 1 -22.3834 -62.454 -8.27278 1115.22 1032.74 813.464 105.74 212.663 -100.213 -848.894 521.842
22 2 -23.8211 -62.7073 -7.685 -469.632 -498.59 -445.236 -56.908 -231.325 -0.756467 -247.248 415.2
4913 2 -21.4116 -67.3374 -7.27576 -51.9807 -1023.28 -166.893 30.917 310.665 12.3294 -229.968 1066.71
4918 2 -18.7532 -66.2647 -6.91164 -3.61378 -335.941 -779.944 245.653 -78.5337 -28.2511 -257.19 810.597
2513 2 -21.2103 -62.5725 -7.17673 -334.762 -981.544 -356.466 3.173 115.64 139.901 -236.036 709.666
2420 2 -21.3567 -65.2747 -7.21893 -42.5312 -1209.16 -538.348 -16.0708 165.266 -21.2193 -218.829 1054.75
4917 2 -18.4488 -64.199 -11.4592 -340.037 -544.192 -168.466 49.2523 226.538 170.88 -251.551 595.801
9889 1 -10.2359 -64.0307 -19.8199 630.03 990.883 1136.04 -36.0857 46.7177 438.368 -772.778 889.168
2518 2 -18.5959 -62.4176 -6.89456 -410.03 -444.911 -466.336 77.6552 -242.255 68.3209 -248.498 458.889
7410 2 -10.6701 -64.419 -11.3883 -348.211 -647.681 -466.286 79.9178 -96.6207 83.8435 -246.483 369.487
7505 2 -10.9304 -61.9426 -6.9814 -394.55 -785.151 -491.222 -17.3765 83.0363 168.189 -235.108 480.216
5008 1 -14.7826 -61.9206 -13.6336 1023.79 975.42 969.69 -135.14 -28.212 -65.4486 -815.259 269.586
7320 2 -11.7969 -65.7276 -9.35613 -589.611 -377.146 -469.932 111.402 -91.2288 -185.103 -244.163 446.123
4824 2 -17.7685 -65.6143 -9.22432 -651.426 -343.032 -193.027 -19.8917 -169.289 -255.571 -241.543 668.567
7406 1 -12.117 -66.0262 -7.83966 654.852 1175.58 1029.57 -277.017 -122.529 123.497 -827.318 733.115
7414 2 -13.6668 -66.0237 -7.53996 -146.403 -384.027 -853.555 31.5686 -61.8502 5.23081 -259.885 634.855
4910 1 -17.4463 -65.9935 -7.70489 298.052 1113.55 964.307 33.0761 21.3746 58.6793 -816.364 761.964
7411 2 -14.6484 -65.9762 -12.6022 -680.326 -284.865 -628.093 -134.179 -56.847 205.008 -260.512 572.933
4920 2 -17.4551 -63.0228 -9.2242 -610.85 -437.297 -226.58 130.975 -50.2004 283.486 -248.413 641.256
7405 1 -14.6538 -64.5705 -11.8308 951.935 820.516 903.061 -58.5485 -95.7902 -211.041 -824.995 429.723
4914 2 -15.9192 -64.47 -10.7712 -261.377 -584.871 -353.192 -22.7349 -230.951 83.653 -250.71 515.69
7413 2 -13.2556 -64.4534 -11.0591 -485.971 -630.274 -491.562 104.757 50.3653 140.01 -252.131 345.526
4911 1 -17.396 -64.293 -10.1994 1083.28 1290.03 793.714 44.131 210.708 -183.4 -830.563 652.996
7407 1 -11.8749 -64.3957 -10.3066 788.633 1341.73 832.941 -113.365 23.6078 -43.0094 -833.268 573.716
5015 2 -14.7519 -63.3626 -12.8345 -606.447 -191.792 -647.031 55.3683 19.6442 5.25069 -252.958 448.164
5006 1 -11.9612 -62.0048 -8.1796 871.638 1135.78 1037.71 -67.3239 -17.2689 -304.62 -861.994 588.519
2510 1 -17.4314 -62.0703 -7.88352 869.537 1157.77 1090.6 -207.52 145.357 -187.577 -843.857 605.281
7416 2 -11.6714 -63.0793 -9.34715 -492.35 -391.935 -411.367 127.602 74.3812 299.089 -242.934 585.078
5014 2 -13.429 -62.2989 -7.61264 -382.198 -658.054 -526.143 143.084 -185.283 -1.05843 -235.56 470.66
4916 2 -16.2444 -64.9492 -7.37291 -36.9324 -848.891 -639.614 -99.3549 -98.9045 -99.3322 -234.024 788.486
7409 2 -16.3139 -67.1027 -7.5066 -111.493 -803.81 -498.973 84.7775 59.2559 82.4363 -232.059 643.169
5009 2 -16.0481 -61.9541 -7.15098 -568.352 -696.308 -487.914 -33.6297 62.0797 104.779 -243.373 284.651
9905 2 -11.0199 -67.0019 -7.07684 -133.403 -960.654 -472.147 12.7458 398.299 -26.543 -212.593 998.696
7412 2 -11.2807 -64.9034 -6.95552 -79.3945 -1026.09 -489.214 106.423 226.586 47.8581 -212.465 933.315
7420 1 -15.1338 -66.1227 -6.94471 523.258 1192.47 1166.45 -26.8602 167.354 -181.494 -812.198 784.932
4924 1 -20.3683 -66.3397 -6.48556 1161.98 1047.44 982.283 -64.243 33.605 50.5179 -816.721 219.665
28 1 -24.9868 -62.3507 -6.5928 1411.57 902.055 1064.85 143.322 322.113 -1.15046 -847.195 758.985
2431 2 -24.8943 -66.0471 -5.57187 -768.509 -333.819 -517.244 18.8426 -44.401 224.386 -244.714 548.538
4927 2 -20.2841 -65.9304 -4.92759 -790.102 -336.077 -146.748 140.258 32.5637 376.289 -233.165 902.731
2432 2 -23.3849 -65.2519 -0.974095 -582.698 -263.468 -140.957 161.72 -290.69 -261.164 -259.788 832.231
2433 2 -24.0099 -64.8998 -3.40247 -607.719 -674.693 -428.7 -68.5017 51.9928 39.2225 -236.445 274.454
2425 1 -25.1346 -64.8416 -4.53798 1306.09 1280.71 544.646 77.1264 99.742 -336.141 -844.104 973.539
2430 2 -21.4435 -64.7229 -2.91439 -290.733 -661.837 -324.598 84.3907 -318.457 -55.7257 -239.502 679.134
4921 1 -20.1085 -64.6994 -3.82803 1210.92 1246.71 755.093 -54.0815 176.6 -75.749 -860.058 587.303
2427 1 -22.9267 -64.4712 -2.31582 1260.09 1059.32 705.586 26.1387 65.504 62.5973 -848.383 512.962
2531 2 -20.0973 -63.4046 -4.80202 -591.956 -471.573 -29.1555 20.4767 -138.063 -205.057 -240.291 669.382
2436 2 -22.9787 -62.8512 -2.13879 -684.957 -191.668 -545.771 45.9519 -32.469 -55.428 -245.047 461.261
2524 1 -20.0407 -62.3928 -6.10657 1178.37 1181.05 1188.47 -54.3581 111.674 -77.351 -852.072 253.593
35 2 -24.9164 -63.4115 -5.37795 -633.657 -80.7383 -222.98 36.7628 -193.208 -215.331 -246.235 708.835
4929 2 -18.708 -64.8536 -3.08522 -205.593 -558.186 -356.427 -41.8853 186.56 20.8238 -234.177 452.623
2543 2 -20.1161 -62.6849 -0.249279 -710.773 -369.145 -755.449 137.25 -156.663 -46.8526 -231.125 520.285
7429 1 -14.781 -63.7991 1.77773 769.207 885.411 1438.45 -282.977 -91.7124 12.7473 -892.064 805.955
40 1 -25.1443 -61.1673 -0.00978412 1216.81 768.338 570.573 96.6795 -28.6404 10.6096 -845.651 599.812
5033 2 -16.1767 -62.2216 5.95552 -499.019 -598.32 -386.347 159.071 279.45 106.834 -225.095 614.958
7444 1 -14.0795 -66.5526 6.06128 773.018 1135.56 1333.76 -158.551 -37.3216 -284.31 -860.69 751.445
7422 2 -11.046 -64.3497 -2.88128 -238.874 -795.92 -438.817 142.795 -74.6843 80.8641 -230.24 580.019
7426 2 -14.4187 -67.0719 -0.431797 150.36 -551.44 -598.488 -141.711 24.651 -100.998 -209.879 787.67
5020 1 -14.5984 -62.1164 -6.5027 1046.06 1158.23 1021.14 -67.9323 11.8686 -239.679 -851.467 450.116
7332 2 -12.235 -67.5246 -1.97412 -521.41 -280.712 -321.035 71.1628 -48.2044 -221.627 -119.692 468.375
7418 1 -12.7409 -66.9202 -0.641398 1551.31 855.588 1308.09 -89.1577 -72.3612 302.761 -938.451 829.77
7423 2 -14.8198 -65.8998 -5.38704 -665.483 -339.715 -331.962 219.79 201.826 413.17 -231.16 942.317
7424 2 -12.6279 -65.3252 -0.998997 -820.253 -643.063 -561.323 200.281 -35.4425 -304.538 -194.795 674.461
4928 2 -16.6737 -65.7068 -1.27476 -443.263 -407.422 -104.804 -165.554 231.769 -255.084 -232.072 736.402
7425 2 -13.8049 -64.5601 -3.16188 -540.484 -809.564 -407.386 47.4463 -42.5551 -16.1477 -229.9 372.695
4926 2 -16.2381 -64.6028 -3.67235 -777.944 -721.693 -652.447 207.824 -118.57 -168.745 -223.982 518.68
4923 1 -17.1591 -64.6887 -2.46265 1158.73 1218.16 867.262 -44.1521 445.624 11.8559 -870.307 841.319
7419 1 -12.5229 -64.3433 -2.25106 1156.11 1477.58 737.947 -296.812 -59.0397 17.4688 -894.478 829.637
7417 1 -14.7787 -64.5553 -4.41256 1094.32 1312.24 822.878 -180.598 22.0507 -168.145 -857.841 603.692
4932 2 -17.0198 -63.1334 -1.89708 -620.507 -112.716 -701.517 154.865 -29.6407 -15.6633 -224.417 617.148
5027 2 -14.5596 -63.3352 -5.43392 -604.064 -206.008 -375.717 34.8256 -50.8794 -95.7316 -250.12 398.239
7428 2 -12.7331 -62.7398 -1.78542 -638.268 -197.542 -466.429 30.3236 3.52998 108.414 -217.738 431.383
9916 1 -10.0715 -65.9157 -6.39041 552.427 1165.76 921.489 -182.974 -137.809 -190.492 -848.469 743.169
2522 1 -17.11 -61.531 -1.87239 1154.83 982.671 1099.59 -196.017 265.352 81.139 -860.425 607.812
2590 2 -18.5541 -61.4351 -21.1626 -82.9162 -499.054 -552.144 -34.699 -88.0456 64.4567 -276.065 487.251
7430 1 -11.1936 -66.2867 4.61605 1018.72 902.175 1337.93 -246.286 -149.624 220.013 -864.554 739.616
2542 2 -18.6616 -62.398 6.63086 -605.9 -642.265 -535.909 75.8039 -91.9531 34.8989 -228.594 234.574
4948 1 -18.8399 -66.3288 6.40157 1166.01 1122.87 910.278 141.712 238.412 -191.352 -849.791 629.953
2426 1 -23.707 -66.1797 0.328643 1121.34 1125.8 1044.56 0.00539151 245.916 -158.481 -778.68 512.864
2434 2 -25.0715 -67.0938 0.440743 96.891 -578.285 -314.601 22.4489 -394.304 -59.3794 -248.391 908.776
47 2 -24.7863 -62.5978 0.565982 -742.937 -440.63 -629.352 -80.6495 151.883 -45.1151 -246.369 405.929
4930 2 -19.5229 -67.3155 1.78483 -20.453 -421.629 -641.297 -108.509 391.472 -35.7711 -227.743 892.319
4925 2 -22.2885 -66.7737 0.868113 26.2003 -370.59 -770.444 -298.436 101.42 57.6512 -256.616 885.44
4943 2 -21.3647 -66.3805 3.13429 -779.018 -611.107 -630.369 42.6239 40.9265 -110.357 -229.754 268.965
4937 2 -20.1761 -66.4074 5.45693 -356.807 -504.151 -518.917 -109.18 204.028 -89.3163 -234.756 456.814
4936 1 -20.9219 -66.4558 1.62066 968.468 764.71 1071.16 -8.11566 -146.555 -200.261 -843.482 507.873
2446 2 -22.866 -66.1882 5.30677 -439.303 -713.216 -439.794 54.9316 -16.2984 22.3133 -229.583 293.661
2442 2 -20.7293 -62.8585 2.25747 -884.428 -556.282 -482.19 18.8737 -95.9528 -53.753 -231.814 418.138
2438 1 -21.4449 -65.8535 4.66047 1117.87 965.836 778.215 58.3936 -82.9884 160.192 -863.675 441.265
2445 2 -23.0515 -63.5413 2.36862 -573.442 -564.298 -617.959 -172.107 112.589 -24.6016 -254.544 362.187
4933 1 -19.9504 -63.5222 1.07335 975.606 747.312 831.938 -59.4591 39.4659 277.474 -855.457 534.99
2452 1 -24.2654 -65.7229 5.9383 1125.45 1451.12 331.39 21.3347 65.03 -209.897 -890.377 1068.37
2443 2 -24.6691 -65.1626 1.37747 -212.129 -254.126 -596.899 -11.0355 -488.725 -12.5441 -292.393 922.522
4939 2 -20.4249 -65.0404 1.06697 -595.563 -549.108 -617.985 75.5197 -40.6604 -49.6397 -247.643 182.11
2441 2 -24.5595 -64.2731 5.41791 -514.544 -527.484 -134.223 -15.9788 -88.2796 114.324 -159.974 461.615
2444 2 -21.4249 -64.2854 4.42437 -692.633 -498.123 -376.33 -88.4083 145.803 -182.688 -238.937 513.523
2437 1 -24.5548 -63.5389 1.83932 1026.88 595.123 1213.77 -107.517 89.8606 -63.8475 -810.864 610.871
2439 1 -21.9083 -63.1285 3.37544 1136.58 693.849 1104.45 -22.1901 -195.471 -481.205 -846.753 996.793
2448 2 -22.3936 -61.8733 4.17261 -697.882 -442.699 -473.321 -19.2602 71.8171 278.654 -241.118 554.772
4941 2 -18.4228 -63.3485 1.50114 -560.736 -621.563 -444.089 135.623 189.443 -17.3731 -226.018 433.766
4836 2 -17.9984 -65.4255 2.75355 -633.711 -611.443 -963.18 157.185 -17.6765 182.065 -226.613 539.337
4944 2 -18.1192 -62.9802 4.16329 -669.226 -421.621 -402.595 124.418 48.6121 308.838 -233.581 637.223
2537 2 -21.1134 -61.4677 6.49102 -568.655 -659.506 -430.545 -97.1241 102.863 48.1377 -232.953 326.908
7499 2 -10.2275 -62.4069 -19.7284 -470.765 -198.949 -479.575 126.563 -4.86088 -108.842 -268.238 400.027
4922 1 -17.987 -66.9245 2.25365 1280.43 639.812 1189.32 111.871 -22.6227 50.4374 -866.417 637.995
4942 2 -17.6413 -65.6427 5.5773 -378.415 -823.691 -473.571 -195.74 -193.074 322.921 -209.554 839.384
9917 2 -11.7053 -67.103 0.601827 -83.958 -679.316 -564.38 14.9603 384.65 108.116 -204.517 882.519
9928 1 -10.5008 -66.7264 1.65807 1564.32 724.554 1252.08 -145.305 -2.56798 -319.158 -900.863 953.643
7432 1 -15.786 -66.2946 -0.0249987 1607.4 1132.47 1202.93 -10.028 -46.448 52.7158 -875.128 460.617
7421 2 -16.941 -66.942 1.04129 -262.197 -418.77 -414.354 133.205 -387.069 -149.188 -224.909 770.268
2500 1 -20.1078 -61.1572 -20.8699 775.588 949.037 877.316 -70.7556 128.508 37.0689 -780.978 302.445
4938 2 -16.0615 -63.6492 2.76353 -497.31 -516.862 -777.86 54.5508 -94.2198 -12.733 -220.876 331.136
4955 2 -17.8515 -67.6393 6.23841 -240.493 -699.24 -461.319 -269.921 -249.751 253.688 -207.605 869.874
7440 2 -12.348 -62.427 4.71115 -661.569 -450.285 -234.711 -45.6544 97.6423 265.254 -223.227 618.542
7431 1 -12.1055 -63.4818 3.53553 1120.01 976.369 1247.66 120.068 4.02181 -43.3222 -873.616 322.785
7436 2 -11.4086 -64.7635 4.22264 -565.832 -638.233 -689.909 -131.249 186.762 -126.17 -231.596 464.467
5030 1 -12.2929 -61.5966 6.18167 1013.17 1191.26 1111.97 271.173 17.0421 9.00848 -861.845 495.581
7344 2 -10.9494 -67.0259 3.17682 -717.167 -435.998 -265.615 130.448 18.3489 86.7299 -219.838 480.228
5039 2 -14.7615 -62.4325 0.918844 -646.295 -558.293 -701.235 77.7599 -17.5034 -105.3 -218.72 260.616
7433 2 -15.3596 -67.0377 5.25654 -445.664 -488.629 -755.699 55.658 158.277 -85.4787 -238.626 437.053
7435 2 -15.1538 -64.9905 0.825993 -533.123 -478.163 -561.638 281.604 217.654 73.1409 -221.439 633.618
7434 2 -11.0752 -62.9445 2.4304 -401.975 -665.353 -499.732 6.9056 -189.164 -69.5334 -226.443 418.538
7437 2 -13.5299 -63.8731 2.76503 -288.012 -451.882 -465.039 147.342 362.733 29.0705 -226.378 701.122
2534 1 -17.6812 -62.091 5.40098 1232.26 1090.67 759.846 -189.777 2.93079 -193.446 -875.968 629.816
4934 1 -16.8971 -67.0572 5.05177 611.162 1182.25 1019.94 83.1864 -140.472 -66.7965 -855.05 594.249
4940 2 -17.3554 -67.4912 3.62829 -646.391 -724.876 -483.023 57.7357 183.141 66.8912 -227.519 411.966
4935 1 -17.632 -63.8435 2.86839 982.945 1015.42 1436.81 -134.907 -10.1103 -164.162 -863.321 572.767
4 1 -24.79 -61.7226 -20.7044 828.195 740.715 856.845 100.226 104.004 255.191 -801.98 518.587
5038 2 -13.737 -61.9461 6.82778 -203.967 -609.756 -644.82 190.895 -174.554 -131.323 -232.584 657.716
7447 2 -14.3777 -65.0531 6.71346 -524.94 -639.59 -289.526 3.54121 -183.434 439.422 -202.156 880.802
7529 2 -11.0161 -61.9453 7.04684 -403.823 -662.005 -448.1 -115.568 83.3784 162.677 -240.539 444.411
4951 2 -19.3624 -65.5775 7.71785 -703.409 -311.438 -522.016 -203.534 -172.923 159.293 -235.475 636.829
2456 2 -21.7574 -65.7735 12.2891 -707.313 -532.933 -47.0404 90.4215 114.721 -146.369 -236.078 692.468
2457 2 -23.1509 -65.3117 9.90079 -222.15 -612.733 -250.591 -69.7279 258.404 -92.2782 -234.634 618.632
2454 2 -20.5818 -65.1024 9.9621 -477.954 -606.56 -529.185 93.5937 -242.799 124.12 -230.862 511.787
2451 1 -21.9167 -64.9783 10.8667 1176.8 1310.16 969.937 -251.646 75.5536 74.7374 -863.438 558.591
2449 1 -24.3475 -64.8542 8.83747 1303.75 1210.44 844.514 47.7265 257.185 -17.9665 -854.579 618.86
4945 1 -19.6441 -64.5019 8.85462 1218.94 952.766 752.78 -183.652 187.668 -120.64 -868.701 643.878
2460 2 -22.24 -63.4275 11.4556 -591.126 -7.19304 -539.286 -116.533 -88.7451 220.962 -225.607 724.04
59 2 -24.0273 -63.2967 8.38807 -645.207 -333.112 -542.666 -28.9931 -38.0214 -164.996 -234.248 405.518
2555 2 -20.4594 -63.1659 8.33024 -678 -241.66 -516.928 6.14646 24.3826 23.5222 -227.296 386.796
2549 2 -21.0925 -61.8347 13.0522 -456.318 -649.694 -599.399 90.8783 9.52412 -16.327 -230.326 236.741
58 2 -23.7987 -62.0649 13.0949 -312.763 -787.155 -362.985 46.3387 -193.791 140.938 -231.373 618.419
50 1 -22.4342 -62.0102 12.237 1027.81 1187.8 989.483 -41.3486 -33.52 -63.8314 -880.738 232.209
52 1 -24.5547 -61.9626 7.76759 1359.24 611.679 1173.35 -14.7356 6.59891 130.55 -863.527 711.58
2548 1 -19.9298 -61.909 7.49251 1270.09 766.311 837.579 22.5573 -76.425 -86.1375 -869.809 514.076
2455 2 -24.3088 -65.733 7.47396 -763.164 -640.866 -566.498 -0.48731 -72.4472 204.79 -224.338 413.697
2560 1 -19.6131 -61.7899 13.7011 1150.97 1178.11 1047.86 -250.273 12.8365 -12.3693 -865.917 450.588
2450 1 -21.9148 -65.7062 13.8685 1056.57 1113.57 1152.27 -82.6268 103.11 -65.829 -847.003 268.943
2453 2 -25.4039 -66.167 13.6049 -339.611 -363.329 -536.678 75.563 173.428 31.3579 -254.148 380.835
2554 2 -18.5191 -61.9566 12.5033 -338.341 -581.826 -205.101 15.7518 -304.497 123.735 -233.899 659.023
4953 2 -18.1732 -63.9924 9.22037 -412.231 -560.889 -783.245 51.4874 -94.3161 -40.5654 -229.116 379.701
64 1 -25.0754 -61.8244 14.0502 1383.19 1275.1 840.709 -106.831 41.2306 -284.747 -851.228 727.951
2546 1 -17.053 -61.8826 11.781 1240.79 1197.42 774.535 -93.0632 -0.507124 -84.0307 -867.289 496.208
7451 2 -14.1565 -66.9644 7.68155 -522.131 -561.448 -157.955 -1.98044 -138.745 415.149 -201.698 850.468
7448 2 -12.6849 -65.7496 11.4747 -330.375 -212.183 -211.819 59.1785 17.6322 -17.0885 -125.116 162.258
7441 1 -14.3798 -65.4694 8.31851 1219.17 1102.82 1104.93 127.851 91.8001 -558.636 -871.092 1011.85
7449 2 -13.071 -64.8417 9.02402 -241.077 -443.346 -534.406 149.559 230.436 216.952 -216.383 659.722
4950 2 -15.7475 -65.1418 9.08642 -296.497 -565.089 -543.042 -154.118 -158.499 313.851 -229.665 713.327
7443 1 -12.1292 -64.746 10.3946 1174.75 1320.17 1453.04 -48.1424 -236.026 -290.053 -921.642 696.128
4956 2 -16.6232 -63.1936 10.9613 -663.713 -355.506 -512.049 -95.4616 -157.816 234.498 -229.305 581.613
4947 1 -16.5949 -63.8404 9.49789 1004.59 961.82 1145.16 -10.951 70.9116 -296.129 -873.875 553.283
7452 2 -12.2945 -63.2129 11.1086 -526.758 -536.597 -273.085 -141.035 -46.3217 380.818 -209.02 753.737
5051 2 -15.8687 -62.7797 8.50932 -374.926 -514.136 -395.038 187.156 -205.642 -179.801 -224.776 588.148
5042 1 -12.2945 -61.991 12.1285 1062.28 1072.75 889.031 -0.0370433 -41.3136 119.667 -892.876 282.877
5050 2 -13.4193 -61.9424 13.2589 -357.248 -708.275 -362.82 44.3883 -117.53 4.60037 -228.591 410.743
5056 1 -14.822 -61.9974 14.0812 1141.55 1497.95 839.698 -101.306 -143.486 169.769 -875.263 710.447
5045 2 -15.9784 -61.7021 12.9876 -451.063 -724.316 -275.888 4.37241 238.95 -136.785 -225.649 617.009
7446 2 -10.6023 -64.9125 9.79516 -322.596 -571.225 -449.147 -55.2727 -231.975 112.289 -215.534 504.774
7541 2 -10.7915 -61.9236 12.7695 -307.106 -671.01 -380.578 -32.1896 184.308 -68.6499 -223.589 479.836
5044 1 -15.2669 -61.8505 7.24282 816.341 1178.31 1381.43 -177.271 -106.787 8.19247 -874.821 611.955
2467 2 -23.2087 -64.6961 14.1876 -151.318 -1005.8 -571.157 127.085 -158.321 172.414 -207.681 872.062
2458 2 -22.9943 -66.7721 14.5101 -125.166 -854.495 -670.569 197.508 -266.621 87.0418 -212.281 885.79
2464 1 -24.2638 -65.8635 14.6829 640.716 955.431 1382.59 -40.942 70.1764 -267.544 -845.497 806.528
2468 2 -22.6908 -65.5775 17.7266 -476.756 -534.679 -184.459 39.6005 -1.50844 43.3669 -138.379 340.7
2567 2 -19.4347 -62.9185 14.8319 -629.04 -492.17 -360.241 157.474 -48.632 -178.342 -225.065 480.731
4949 2 -20.6349 -65.1842 14.7371 -346.423 -294.625 -187.444 251.55 453.548 302.752 -233.234 1049.6
2471 2 -25.0071 -65.2973 16.0263 -691.108 -483.079 -502.492 -41.5469 -229.297 458.467 -225.048 912.744
4957 1 -19.8569 -64.1601 15.8115 1285.15 1135.69 1124.9 -35.6671 -83.3502 13.9055 -873.693 222.045
2466 2 -20.9638 -63.7317 16.9042 -711.26 -599.571 -459.004 -46.6936 -26.366 121.56 -228.773 317.632
2463 1 -22.1914 -64.1272 17.7753 1035.06 1346.04 655.55 95.9331 120.571 -321.757 -904.28 860.556
2469 2 -23.5878 -63.381 17.1769 -636.995 -841.094 -628.471 -105.285 -54.6106 160.162 -213.989 403.269
2472 2 -22.0986 -63.4153 19.2253 -719.003 -626.342 -392.891 -57.6957 2.91309 231.43 -219.241 505.38
2461 1 -24.9238 -63.8169 16.5869 846.929 948.307 779.234 65.7793 -16.7531 -442.941 -870.608 790.022
62 1 -22.4584 -62.1109 20.0702 981.388 1510.08 811.703 130.576 -209.998 -24.5475 -848.089 763.722
71 2 -25.2281 -62.9427 15.3075 -768.217 -431.542 -340.8 110.305 -114.652 -31.3106 -232.678 480.638
70 2 -23.7816 -62.5048 20.9809 -207.523 -596.813 -4.12443 177.127 -288.999 -382.949 -246.107 1027.97
4965 2 -18.5052 -64.4869 16.6486 -399.724 -561.647 -531.999 91.8168 284.455 172.758 -219.147 616.335
7553 2 -11.0132 -62.2276 20.8738 -665.486 -654.124 -363.527 -23.1317 141.342 9.70267 -237.338 386.908
4968 2 -17.8269 -63.1631 18.963 -553.255 -763.786 -209.582 6.2006 8.71135 301.808 -207.702 713.018
2558 1 -17.7089 -62.1019 20.1267 987.929 1555.95 896.657 -17.5892 22.6689 148.774 -878.37 672.079
4964 2 -17.587 -65.6171 18.9035 -413.504 -500.837 -323.323 -9.25301 78.2574 36.0354 -122.392 214.85
4959 1 -17.5365 -64.4645 17.9107 972.788 1152.14 1250.45 -1.43436 -202.252 -92.3935 -927.437 455.85
7461 2 -13.3828 -64.8433 16.6168 109.742 -858.255 -560.847 -31.496 258.646 -97.8812 -209.577 984.882
7460 2 -11.8288 -63.5901 18.6923 -627.014 -603.538 -247.639 47.2097 82.1417 223.776 -233.671 559.219
7455 1 -12.2978 -63.7985 17.155 660.47 1264.89 1149.83 -29.9316 -135.977 55.7919 -843.454 613.603
7453 1 -14.7295 -63.8425 16.4879 831.263 1360.5 1032.19 -47.7532 -296.874 210.508 -855.771 786.329
4962 2 -16.0261 -64.129 17.3185 -211.146 -501.831 -654.315 73.3142 -47.1691 59.732 -224.285 430.787
7464 2 -13.5487 -62.7472 17.0428 26.4563 -966.927 -619.141 133.129 64.1192 -79.3973 -210.045 920.161
5063 2 -14.9592 -63.2822 15.0344 -656.788 -608.331 -371.287 -8.63033 21.7316 -327.761 -230.475 627.651
5054 1 -12.0611 -62.339 19.6687 1115.8 1169.79 661.207 131.012 -129.814 27.1985 -863.796 581.707
5062 2 -13.4983 -62.4296 20.414 -302.856 -732.488 -475.989 -50.3044 -205.551 -118.366 -229.765 562.629
5057 2 -16.2286 -62.246 20.841 -156.48 -779.173 -439.133 -11.4857 108.174 -89.2356 -229.115 592.472
7458 2 -10.9655 -63.6007 16.2535 -310.979 -550.649 -574.893 49.3919 -177.961 -109.899 -245.822 449.893
2561 2 -21.3628 -61.7451 21.1885 -668.588 -732.184 -387.39 -81.9544 104.299 -116.508 -243.97 441.029
2566 2 -18.8478 -62.2731 21.305 -300.044 -785.705 -157.725 106.514 -255.205 -233.228 -234.289 847.26
2478 2 -21.7605 -64.1367 25.7985 133.411 -496.706 -37.8811 -4.96614 -429.378 -85.5377 -281.649 945.291
2475 1 -23.1527 -64.0112 26.6768 841.507 841.634 1136.97 -45.4916 -312.101 90.1579 -727.363 640.373
4969 1 -20.5242 -63.3657 24.9345 864.75 1188.45 831.634 185.729 3.22795 128.307 -793.433 519.138
2481 2 -24.4277 -64.0701 25.7263 -54.9975 -490.221 -314.323 -16.3952 530.969 -11.9862 -279.934 995.403
2579 2 -20.631 -63.1205 23.3728 -562.749 -588.924 48.8352 131.938 -291.449 -360.959 -245.03 1043.39
76 1 -25.0473 -62.3886 22.0484 1190.17 1257 713.072 8.5104 -490.411 274.021 -806.43 1100.44
2572 1 -20.1859 -62.0364 22.1449 916.064 1552.04 580.195 43.3862 -240.934 221.901 -847.071 1028.78
2484 2 -20.7563 -61.9988 25.7885 -319.299 -669.774 -414.675 -127.156 -91.0889 37.2504 -272.983 419.598
4977 2 -18.982 -63.8603 24.9748 257.666 -448.205 -787.457 -111.26 -319.986 -54.5293 -260.578 1098.2
82 2 -23.1272 -62.2881 27.2325 152.931 -218.567 -724.92 -136.507 -251.469 352.485 -325.354 1095.84
83 2 -25.4055 -63.4285 23.295 -456.687 -598.448 140.009 95.662 -65.2845 -422.677 -267.871 1018.3
2480 2 -23.4727 -64.6335 28.1262 -366.39 -610.769 177.732 34.8166 -149.06 -261.23 -286.78 873.944
74 1 -21.6094 -61.5464 27.061 816.317 782.104 1012.75 -152.48 -293.892 77.1677 -744.531 627.065
5068 1 -14.7465 -62.2975 21.4182 1068.25 1312.35 638.458 56.6076 62.5417 270.976 -866.448 768.669