ITEM: TIMESTEP
1760000
ITEM: NUMBER OF ATOMS
29952
ITEM: BOX BOUNDS pp pp pp
-2.5050570523256493e+01 3.5035864872341762e+01
-1.1793483319708149e+02 1.2792012753908149e+02
-2.0943559416291997e+01 3.4811412561709581e+01
ITEM: ATOMS id type x y z v_StrAtomXX v_StrAtomYY v_StrAtomZZ v_StrAtomXY v_StrAtomXZ v_StrAtomYZ c_PEAtom v_VMS
12463 2 -7.65986 -50.7784 -15.5169 -230.51 196.633 -355.358 112.21 38.4514 81.2362 -62.203 559.797
22758 2 -20.8141 -45.7009 -17.2674 -282.854 243.355 -77.4889 -67.8466 64.9659 -34.9976 -106.135 491.072
24962 1 -22.0161 -45.654 -16.155 706.786 -516.075 108.765 45.9231 -158.13 64.3635 -313.331 1102.49
20167 2 -23.0577 -45.8086 -17.4333 -284.038 276.345 -76.6132 28.2656 59.7036 -29.1216 -109.648 506.41
4898 1 -21.8753 -44.8053 -18.136 624.142 -296.77 -35.8348 18.1477 -109.241 37.7129 -293.04 846.713
7594 2 -4.70368 -50.3956 -16.1171 -271.084 290.085 -346.822 95.2494 -45.2575 84.2055 -63.6697 646.361
10082 1 -6.23554 -50.1139 -15.5959 505.859 -444.44 675.145 -245.885 54.8341 -173.535 -401.63 1171.9
7861 1 -4.33705 -48.8218 -16.302 572.383 -529.695 590.477 -294.839 99.1561 -90.823 -398.885 1244.94
9702 2 -6.04567 -48.7309 -16.3877 -231.002 222.252 -299.199 144.379 2.50143 22.7418 -63.2383 552.364
12571 2 -3.747 -47.721 -17.2653 -343.311 280.747 -232.697 122.072 -33.2439 -14.2099 -66.4204 617.479
17573 2 -3.79373 -48.3955 -14.9332 -240.349 263.901 -282.053 137.752 -37.5552 46.2287 -73.9697 587.031
17758 2 -2.35378 -46.4699 -19.0358 -355.789 249.564 -171.036 46.7605 -46.969 -96.6375 -65.4202 574.403
7321 1 -3.24718 -46.244 -17.727 689.435 -485.666 283.542 -113.823 56.9521 157.966 -397.138 1091.83
19892 2 -2.34836 -45.6421 -16.4756 -237.577 192.606 -132.764 57.2165 24.574 -42.3907 -75.6491 409.852
7958 1 -1.6267 -45.8058 -20.2728 667.296 -496.21 467.973 -28.1012 31.6227 200.483 -399.422 1134.69
7811 2 -4.49655 -45.2474 -17.9859 -302.216 244.919 -146.547 9.44318 -11.6524 -105.524 -64.8996 522.014
9974 1 -1.74682 -45.3813 -14.9505 154.869 -334.682 460.271 -137.143 -114.899 14.3617 -368.635 760.979
17667 1 2.92707 -46.0371 -15.5135 188.64 -397.801 671.967 -209.901 219.449 -132.249 -367.995 1090.91
15248 2 4.50662 -45.9733 -15.8698 -108.748 235.714 -383.304 80.3956 -129.592 74.2207 -84.0216 612.297
17769 2 2.15591 -45.6189 -16.7718 -55.185 167.929 -174.763 86.3062 20.0494 5.50513 -73.077 338.233
15464 2 9.53882 -45.8311 -15.5115 -208.473 238.191 -264.422 -63.8299 51.9928 73.6769 -80.3742 514.049
15043 2 7.01741 -45.7105 -17.1154 -155.28 253.498 -299.669 30.9409 -79.3338 68.8336 -81.4314 531.919
15230 1 8.60989 -45.343 -16.7651 417.094 -462.032 470.216 43.186 69.8581 -74.77 -366.992 927.034
10173 2 9.33714 -45.3006 -18.2733 -264.639 253.722 -218.065 -35.5348 -116.942 38.807 -74.727 544.112
22394 1 5.67405 -45.1218 -16.5323 152.481 -357.362 581.007 -115.959 194.094 -78.5892 -357.407 913.204
19896 2 6.55911 -44.6251 -15.222 -0.419432 106.665 -232.35 59.4694 -36.6764 55.2533 -96.6262 337.489
10096 1 10.9532 -45.5213 -14.8292 306.93 -427.963 470.193 178.976 -92.5584 -215.625 -377.74 973.645
10172 2 12.0286 -45.1098 -15.8029 -62.5466 196.437 -173.726 -76.3143 -45.7212 58.727 -67.1749 377.249
79 2 -22.0054 -44.1621 -19.5225 -250.845 65.6946 73.03 23.953 55.948 -9.65478 -126.799 337.586
22449 2 -22.0192 -44.0227 -16.6192 -274.225 106.53 17.7916 -10.1076 65.4855 2.8593 -123.226 363.672
313 1 -22.5401 -43.1149 -20.6757 200.526 -32.6593 -120.581 -89.964 -136.664 -5.19614 -274.89 403.733
27926 1 -21.8856 -42.3584 -16.3397 262.2 -177.581 -60.184 -39.3633 -106.56 -90.6836 -289.062 467.915
120 2 -20.7958 -42.0615 -15.2366 -71.3965 64.3764 46.268 107.78 135.767 22.211 -116.475 328.528
294 2 -23.4405 -41.9772 -16.0638 8.67022 58.7821 -31.1717 -142.354 9.06755 68.7925 -121.23 285.189
227 2 -21.3946 -41.7808 -17.7436 -141.672 114.934 27.0679 108.698 -6.08258 27.1632 -121.221 297.977
238 2 -22.1177 -41.7163 -20.1397 -67.753 122.801 52.5779 94.1936 25.399 27.5701 -121.893 242.268
2915 2 -19.7163 -41.1173 -19.9637 -56.6784 106.188 -21.4277 224.201 -27.5311 11.4772 -114.913 418.921
2 1 -21.1443 -40.9277 -19.1102 201.585 -335.695 -44.0743 -307.364 56.8797 -38.1762 -300.235 717.304
2697 2 -24.7746 -39.7516 -15.9127 118.17 85.6786 -125.659 -135.59 12.6866 53.2597 -116.41 341.661
22580 2 -21.2972 -39.3895 -18.7577 -15.5145 188.841 -45.5254 65.524 -48.13 4.34144 -111.295 262.071
400 1 -24.4232 -38.1922 -15.9178 -289.587 -189.589 179.092 132.438 10.2111 91.5481 -308.007 510.752
5422 2 -24.0483 -38.933 -20.392 167.292 194.381 30.6594 -72.1505 55.7444 5.25598 -102.956 219.376
25156 1 -24.9814 -41.3479 -15.8691 -186.777 -96.6845 127.872 395.587 -36.408 -158.206 -298.167 792.026
5111 2 -16.2161 -40.441 -16.0254 73.442 -35.8447 -27.3071 180.423 71.7862 -80.6472 -97.2783 379.094
25084 1 -15.6882 -39.0787 -16.7437 -230.512 162.07 52.9276 -358.575 -116.246 199.416 -327.703 817.774
27300 2 -14.4244 -38.6308 -15.8061 149.139 -138.907 -16.3092 165.1 57.8899 -115.313 -104.91 440.915
27583 2 -15.0775 -38.7468 -18.2742 133.618 -96.5594 -22.1708 172.104 21.5386 -49.7998 -102.343 372.939
12672 2 -8.57476 -39.6953 -17.8909 65.6316 -149.333 -14.905 -25.9416 7.86544 -94.3387 -99.9064 253.55
2497 1 -9.06721 -38.2241 -18.0727 -249.053 548.222 -126.088 71.5536 6.44861 174.137 -307.032 811.903
7792 1 -7.01023 -39.5741 -17.6998 -19.2649 304.001 -59.057 256.018 2.85186 219.712 -326.337 678.548
14949 2 -1.17124 -44.2469 -19.8236 -220.541 168.729 -183.78 25.2676 28.8335 -93.293 -75.7623 411.209
4998 2 -6.54814 -43.5237 -18.9542 -89.4429 216.425 -140.568 -24.6872 45.383 -111.504 -56.2135 396.375
2582 1 -5.20492 -43.7417 -18.1923 436.149 -463.046 215.679 159.514 4.30806 265.124 -403.641 972.715
7966 2 -5.37487 -43.1439 -16.6852 -187.884 213.282 -136.84 -112.491 11.0929 -138.287 -73.734 488.636
4802 1 -5.45813 -42.8703 -15.1502 284.677 -429.009 391.731 207.276 -52.1599 257.133 -374.825 965.72
17591 2 -4.04988 -42.937 -19.0168 -209.865 184.946 -53.1689 -109.373 -15.6483 -143.466 -75.9084 465.762
12397 1 -3.53392 -42.2693 -20.3897 264.267 -270.296 141.325 265.186 -95.6398 239.961 -366.633 803.933
4878 2 -2.06006 -41.6185 -20.3261 -35.1151 64.5017 -103.516 -43.7849 78.2665 -71.9229 -89.3746 247.11
7524 2 -4.486 -41.0223 -20.5429 -76.8161 -21.588 22.6302 -169.261 52.2698 -97.1127 -93.9321 360.394
9816 2 -6.36217 -39.8524 -16.2858 6.88505 -76.4959 -7.87796 -146.024 47.5452 -151.609 -100.357 381.636
7799 2 -1.71421 -39.8693 -18.515 59.6639 -79.9535 -5.92191 -34.4168 10.4492 -67.601 -95.6291 179.523
7299 1 -5.37152 -39.7698 -20.4185 -16.0036 304.165 -232.076 270.451 8.09368 111.157 -325.374 689.254
5364 2 -6.22419 -39.6626 -19.0231 11.4818 -170.606 103.962 -152.956 -37.2336 -72.7686 -103.21 385.719
12765 2 -1.63619 -39.0186 -15.9824 58.5897 -94.2573 76.6555 -30.5083 16.5035 -84.5365 -96.1266 226.933
7863 1 -1.60133 -38.6077 -17.5435 -189.229 269.236 -140.093 73.4572 -4.83495 116.63 -337.662 497.135
5278 2 -4.53987 -38.3748 -20.5759 121.245 -169.369 127.835 -55.844 12.3835 -32.985 -110.968 315.428
9687 1 -6.60391 -40.1764 -14.7353 -31.625 60.0508 77.1206 280.206 -117.536 308.92 -344.525 757.328
15078 2 -6.56449 -41.7578 -14.8051 -61.612 126.696 -162.984 -128.778 34.6158 -161.255 -82.6372 442.923
5270 1 -0.948525 -40.7865 -19.5448 -72.2389 -17.9695 183.395 35.4347 -108.898 154.463 -348.689 406.621
9897 2 1.31906 -43.3461 -20.3441 -76.4858 89.9577 -221.507 34.9417 116.956 -47.817 -75.4544 352.747
7496 2 3.57124 -42.5956 -15.5184 -3.14869 58.1802 -145.537 56.9762 -40.9048 -111.973 -98.9928 291.788
23133 2 2.68485 -42.6465 -18.0827 14.7896 12.8816 -75.191 -11.5211 148.957 -149.787 -83.148 377.094
15181 1 3.95079 -42.5106 -17.0921 -12.7904 -74.8179 230.474 -44.5224 -75.3697 304.328 -348.634 615.589
12565 1 1.65113 -42.1753 -19.2326 7.47159 -34.6233 253.583 6.26385 -286.355 225.754 -367.994 686.813
5002 2 0.169289 -41.6418 -18.7778 -14.783 16.4297 -102.151 -18.7931 83.8164 -84.6131 -86.8175 234.409
17670 2 4.44712 -40.9798 -17.278 71.919 12.2997 -90.8665 13.5397 34.3054 -147.86 -96.6984 300.028
17387 2 2.2075 -40.7809 -19.8304 63.9047 -49.2675 -88.2247 0.800589 92.0997 -150.574 -90.0759 334.964
22570 2 -0.027583 -40.0437 -20.6884 44.1553 -32.9725 -64.8983 -4.53873 59.5007 -126.694 -97.3076 261.281
12207 1 1.59059 -39.6474 -20.8181 -168.894 152.804 88.5435 0.958128 -50.8601 314.831 -341.749 626.151
15299 2 3.63707 -38.7208 -16.0611 110.9 -49.7568 -14.2177 -42.072 22.6595 -76.0794 -97.4342 213.492
5303 2 1.60003 -38.2724 -19.9251 106.555 -110.593 18.9766 13.1014 43.2554 -119.389 -100.566 291.024
15279 1 4.75341 -39.5598 -16.7971 -201.824 15.7128 111.856 14.4254 -5.49689 219.656 -336.458 472.167
14964 2 5.01381 -43.7741 -17.1922 -49.3929 88.5466 -183.436 49.1432 -44.1362 -64.1059 -91.867 284.434
17933 2 8.87371 -43.7265 -16.8942 -184.23 161.867 -125.717 34.8823 -54.9254 -43.942 -94.311 348.496
7298 1 9.16306 -43.7776 -18.5285 466.66 -380.393 333.621 -66.1627 255.421 90.8889 -361.586 925.279
15092 2 7.92526 -43.0141 -19.0789 -163.537 125.806 -144.632 53.4058 -92.9953 -68.3016 -90.5996 356.516
15072 2 10.3816 -42.8512 -18.9873 -156.989 151.607 -172.519 45.8553 -137.071 -45.9242 -86.0928 411.419
5194 2 6.6855 -41.9975 -15.0633 11.7345 33.8645 -48.3571 81.8075 -13.2868 -54.5231 -107.253 186.965
15073 1 7.58995 -41.4568 -19.0969 115.25 -62.3394 126.375 -92.3398 108.93 269.023 -337.473 558.512
10359 1 10.6088 -41.3531 -19.0908 175.109 -88.5557 205.582 -216.413 227.943 127.464 -343.052 650.846
19713 2 7.39697 -41.1188 -17.5051 -25.3025 36.0207 -57.5462 78.8243 -67.2022 -117.534 -105.323 283.564
12959 2 9.09061 -40.8169 -19.5229 -75.5834 -9.06027 -39.3906 80.2045 -71.1608 -115.309 -101.82 278.757
10358 1 7.1614 -40.7736 -15.9101 -26.2973 -81.1378 11.9459 -193.572 40.399 183.291 -320.74 473.983
15175 2 10.5343 -40.6035 -17.6289 -56.8744 12.5242 -11.7011 154.919 -58.2957 -51.001 -102.37 306.137
14766 2 6.59063 -40.6638 -20.0406 19.3072 -52.5515 2.74253 15.129 23.2689 -188.179 -94.466 335.846
22675 2 8.44504 -40.1404 -15.2254 -47.346 35.8712 74.0892 141.903 14.9784 -75.3036 -108.744 299.434
15282 2 5.99216 -39.6854 -15.7607 67.6048 20.9448 -7.32459 34.0249 -25.0496 -74.9676 -103.671 162.823
12580 1 9.99167 -39.0598 -17.4926 -24.494 46.5878 -57.0315 -335.974 73.7214 64.0462 -315.978 612.919
17700 2 10.5279 -38.9264 -15.9309 13.6764 -5.01221 85.3466 186.668 -10.6458 -52.3158 -109.6 346.282
22676 2 8.41392 -38.6171 -17.581 44.1835 -7.05033 -9.48036 88.3216 -15.0009 -59.6142 -108.694 193.634
12761 2 5.62037 -38.7754 -17.8723 113.518 -51.538 -6.44177 0.971647 4.53686 -122.197 -100.404 258.253
17484 2 5.80179 -38.1203 -20.887 121.641 -159.455 70.3198 -13.2513 47.6552 -137.82 -100.131 362.692
15335 2 10.8342 -38.4105 -18.8039 35.4173 -55.0691 60.2136 168.542 -60.1154 -38.5043 -108.393 333.999
12665 2 11.7014 -40.4019 -19.8795 -32.9109 -28.3036 -42.1085 123.178 -108.309 -70.0281 -95.0128 309.145
10515 1 11.6855 -38.8123 -20.1577 -47.6554 184 -166.493 -313.57 166.787 139.674 -328.135 729.572
25146 2 21.4297 -39.8224 -19.6313 30.1502 -25.365 -42.5459 -83.8257 7.02137 -31.2259 -106.238 168.773
20348 2 19.5896 -39.4314 -17.8472 33.8928 -69.7999 32.8138 -44.0461 -86.4432 -40.9429 -105.478 209.542
22837 1 20.0616 -38.9864 -19.3934 -85.286 199.983 -96.7221 142.945 21.7754 75.9053 -313.383 405.93
27920 2 19.0465 -38.7999 -20.5938 27.5939 -108.57 88.0617 -63.7654 8.48499 -43.5143 -108.81 220.284
20259 1 19.5556 -38.5047 -16.4951 -188.473 276.852 -191.363 160.699 224.826 123.602 -311.409 702.015
22482 2 19.0985 -38.5091 -14.9262 95.8695 -126.613 84.0809 -61.066 -125.116 -75.6068 -111.9 349.734
20191 2 21.159 -38.1751 -16.3001 111.87 -164.819 88.9797 -82.8908 -89.0897 -33.2967 -114.542 344.233
17485 1 23.0435 -39.6189 -19.2665 -218.275 120.004 123.029 211.676 23.906 92.793 -316.124 526.717
20388 2 22.9841 -37.9797 -19.0128 163.26 -118.025 -8.68016 -99.5216 -27.3522 -67.5159 -117.297 325.505
25164 2 24.3366 -40.7137 -15.1695 78.1187 -11.8391 -97.1881 -64.5141 -85.119 17.9409 -99.4375 241.334
116 2 23.5159 -40.3284 -17.8956 79.3927 -7.38711 -90.8065 -97.4198 -34.7231 -33.9028 -104.372 239.303
27662 1 28.1863 -40.1231 -20.5329 -326.501 -41.0903 304.713 240.623 1.92434 42.7821 -314.693 692.052
19994 1 24.4881 -39.9972 -16.6403 -267.458 156.555 86.7712 170.944 114.835 47.0908 -323.783 537.537
403 2 26.0127 -39.8484 -17.0792 197.248 -85.0395 -69.6439 -50.0913 -29.6868 -19.5682 -106.98 294.783
29876 2 27.8826 -39.9442 -18.9461 180.9 -23.4157 -100.373 -100.318 -5.99736 2.82978 -111.011 306.127
25074 2 28.5003 -39.5202 -16.3952 172.877 -71.1467 -33.316 -52.1977 29.8623 30.6807 -112.185 255.773
17770 2 24.182 -39.53 -20.4008 147.382 -50.0145 -72.5487 -93.5549 6.70638 -50.5633 -107.877 279.256
27577 1 27.4525 -39.2911 -17.5631 -419.978 153.763 88.2282 114.136 -28.3133 -3.42902 -311.277 580.857
20195 2 23.7921 -38.5498 -16.4537 144.607 -135.421 24.9287 -101.792 -72.0816 -23.1947 -111.198 327.89
15372 2 29.1969 -41.3916 -20.5485 120.302 91.1609 -211.993 -102.866 2.76095 4.30643 -105.816 365.251
2664 2 31.5638 -42.032 -18.8498 26.3676 85.8099 -112.624 -144.372 19.9387 32.6238 -109.656 313.097
25160 2 33.9195 -41.7175 -17.0271 75.8582 32.9359 -23.8308 -203.215 68.5582 90.6544 -114.343 412.487
27491 2 33.7841 -41.7433 -19.7586 66.8937 44.264 4.80255 -237.756 2.81595 44.5709 -114.156 422.527
99 1 30.7993 -41.5706 -20.2803 -134.576 -167.333 335.458 285.004 24.7988 -21.6416 -312.501 695.94
19982 1 33.0341 -41.4323 -18.3607 -68.5221 -76.8987 7.74109 417.879 -135.608 -134.481 -307.43 799.885
27630 2 31.2093 -39.9988 -20.2979 42.0623 55.4228 -54.3073 -163.814 -16.7182 -21.8374 -118.05 305.823
25187 2 32.5499 -39.8318 -18.2062 28.2188 71.3867 24.8678 -167.745 62.8544 47.299 -116.566 324.034
5198 1 29.3101 -38.9226 -15.1106 -318.144 148.816 90.1664 174.807 -35.1079 -78.1095 -300.493 554.778
22875 1 31.6711 -38.8947 -19.1986 -61.2422 -140.417 -65.5079 249.957 -30.4246 -44.8152 -297.949 449.652
22224 2 30.4392 -38.3015 -18.2779 93.7341 28.3619 32.8645 -110.736 29.4384 42.5383 -120.038 220.941
27728 2 -19.2081 -37.8834 -18.2788 125.697 -7.0708 -34.1824 135.091 32.4734 1.04603 -110.704 282.626
2796 2 -23.3525 -37.7342 -14.8395 144.207 38.472 -60.6206 -42.2421 0.712265 -31.4125 -110.375 199.479
217 1 -20.694 -37.9009 -18.9158 -168.559 -129.971 97.3949 -75.9853 26.8401 -16.6754 -314.432 286.835
29940 2 -20.5459 -37.5013 -20.4221 94.5291 43.7064 -34.564 22.7503 4.1476 -16.4384 -108.897 122.891
2999 2 -23.9515 -37.6252 -17.3808 153.865 62.0393 -82.1832 -63.0119 -8.34364 -63.6754 -110.857 258.378
336 2 -21.5422 -36.9101 -18.0981 154.008 20.3967 -85.4487 -23.385 -3.10854 -23.7682 -110.101 215.782
200 2 -23.5234 -36.4965 -19.6424 154.58 2.5002 8.39838 -58.484 27.5558 -28.2523 -108.346 192.872
507 1 -23.1603 -36.4425 -18.1184 -336.576 -5.36556 146.202 110.936 1.78072 118.812 -313.232 512.008
2325 2 -21.4108 -35.8033 -15.0277 189.726 -73.644 -74.1033 -9.82819 4.23655 -58.6114 -104.008 283.08
193 1 -19.841 -35.5639 -15.3037 -407.9 181.693 170.778 -65.9411 -81.3586 142.123 -326.772 659.396
22650 2 -23.2973 -35.0111 -17.4272 175.924 -30.0218 -103.84 -41.9172 9.72543 -65.4444 -111.677 285.428
384 2 -19.5207 -34.4768 -16.3808 204.954 -43.6326 -135.626 32.768 29.9263 -76.331 -104.734 341.342
27870 2 -19.6455 -33.2402 -18.9517 232.571 -43.1504 -103.889 26.7326 20.5542 -57.5442 -106.416 331.367
8164 1 -23.0207 -33.5214 -17.2141 -361.457 32.8653 192.555 29.4469 9.95787 39.3392 -319.427 501.499
27661 1 -19.8846 -33.2383 -17.3021 -445.535 29.9069 315.823 -48.7295 -16.0541 125.624 -327.102 706.378
5399 2 -21.458 -33.0663 -17.0898 209.16 -8.83259 -150.005 6.52042 -10.6401 -24.4622 -103.531 316.998
5104 1 -24.1441 -32.9036 -20.0479 -282.284 169.394 -42.4874 -31.9102 33.1594 123.049 -307.477 452.749
2873 2 -23.4303 -32.813 -18.6071 165.434 -67.1948 -33.2148 24.0501 -4.82192 -32.4209 -110.273 228.745
25440 2 -23.8086 -32.7464 -16.0031 113.345 1.19202 -26.0051 -16.6231 -38.0998 76.4147 -103.037 197.66
25071 1 -19.3013 -32.1297 -20.1539 -455.458 159.441 141.835 -35.8086 -86.1899 68.6021 -324.951 638.621
323 2 -19.1968 -31.8111 -16.9012 204.728 -5.9575 -156.299 12.1635 14.6391 7.82972 -98.8078 316.127
27721 1 -24.1506 -37.4427 -20.8128 -318.89 -113.946 -58.9453 81.8902 -99.0177 -20.5069 -322.824 327.25
2626 2 -19.2245 -36.9399 -15.8281 178.399 -55.0024 -59.9022 74.4526 45.4919 -74.5533 -108.638 308.474
27462 2 -17.0384 -38.17 -16.8173 152.76 -80.8995 -32.0618 160.243 61.8142 -92.4045 -109.178 399.604
7708 1 -14.7119 -37.3632 -19.0975 -400.835 326.129 -23.0472 -286.675 -0.313773 102.199 -315.885 821.246
7997 2 -15.8167 -37.0292 -20.2384 187.521 -137.65 18.7496 171.707 14.8204 -14.7935 -110.028 411.225
87 1 -18.2917 -37.2513 -17.1283 -377.738 118.767 99.4046 -238.853 -89.5022 90.7996 -313.444 676.163
5369 2 -13.3203 -37.0808 -19.867 258.622 -220.535 27.9961 97.4342 -38.5324 -34.5576 -109.64 456.937
7591 2 -14.9984 -36.1784 -17.9859 179.472 -139.002 6.56021 117.31 21.708 -64.1363 -114.812 362.347
5093 2 -17.4545 -35.9568 -17.5922 206.095 -73.3547 -60.8237 107.048 21.5309 -52.311 -112.084 344.566
10565 2 -15.7531 -35.3832 -15.7138 148.066 -78.2888 -8.84557 104.424 61.8676 -43.7539 -111.157 300.466
5307 1 -16.0762 -35.2559 -17.2635 -358.657 155.27 44.4305 -192.664 -77.5176 111.917 -308.016 621.614
420 2 -15.8756 -33.7407 -17.7751 159.339 -48.4597 -35.3938 52.3811 43.6929 -40.2343 -112.263 243.825
2880 2 -15.5047 -32.5609 -20.0329 159.071 -40.2121 -23.9174 21.2861 -0.683173 -34.7662 -110.329 204.252
3069 2 -13.7121 -32.6565 -18.2817 143.013 -40.2907 3.45194 38.581 6.92879 -17.5196 -112.157 181.73
7587 1 -15.2656 -32.4528 -18.4255 -293.351 49.8136 64.1019 -45.2177 -62.8231 40.2461 -313.199 381.711
5004 2 -13.2982 -34.7768 -15.7031 110.736 -85.4833 21.8793 34.2573 28.6724 -21.9481 -113.287 190.773
7800 2 -7.47392 -37.9054 -17.4821 63.8075 -241.357 66.6254 -59.2622 12.7123 -84.1232 -117.645 355.309
27633 2 -9.2411 -37.8038 -19.5279 130.753 -273.573 126.733 -32.9493 1.00625 -76.4796 -115.81 427.408
4722 2 -12.0409 -37.6089 -15.5926 223.351 -225.507 28.5513 57.7679 0.550243 -109.825 -108.88 445.174
8171 2 -9.9935 -37.4364 -17.1142 208.811 -286.922 46.5792 -34.9904 -23.7594 -87.7408 -114.681 469.158
5200 1 -10.6199 -36.8949 -15.6987 -445.016 510.986 -132.719 56.66 49.7175 153.559 -309.433 894.819
5752 1 -12.4795 -35.848 -20.5575 -524.093 458.124 -134.652 -62.2113 124.108 52.2064 -305.365 894.369
13049 2 -7.58252 -35.886 -15.7512 121.851 -166.289 94.9208 41.3608 20.4242 -36.6033 -113.083 293.927
582 2 -8.42488 -35.6714 -20.6225 110.691 -147.625 159.577 2.01464 -2.42064 -41.0916 -122.654 294.687
9953 2 -10.7693 -35.3251 -15.4858 178.458 -139.422 59.3803 -45.6319 1.96867 -37.3095 -111.195 296.326
8128 1 -7.67464 -34.7131 -19.6459 -213.999 132.043 -209.497 -49.7379 -36.394 84.4155 -296.067 388.562
4891 2 -12.4306 -34.5962 -19.5945 209.701 -138.256 46.5001 13.6802 -47.8525 -22.1442 -115.36 315.95
10166 1 -11.7961 -34.0597 -15.6999 -256.175 110.242 -111.152 12.982 -5.67974 28.5957 -314.433 324.36
2598 2 -11.6015 -33.5538 -17.1888 144.017 -41.786 38.2929 11.7334 -37.9756 -33.9106 -111.214 185.056
13054 2 -8.51977 -33.5706 -18.8947 135.429 -16.8837 37.0934 5.47971 -5.35015 -13.5635 -115.374 136.452
5750 1 -12.2815 -33.3464 -18.6303 -338.158 94.4805 -55.622 -57.1085 73.952 28.5986 -308.901 416.427
5641 1 -7.96104 -32.2866 -18.0918 -271.198 61.3952 -50.2768 48.8456 -34.2516 -32.868 -310.738 316.015
377 2 -11.4465 -32.1413 -19.3626 166.723 -49.7556 21.9385 22.5351 -37.8144 16.5899 -111.864 207.658
2870 1 -9.46166 -36.8883 -20.8701 -295.498 474.192 -348.272 67.7255 42.1452 92.5737 -294.459 825.001
3113 2 -7.22935 -35.6051 -18.3526 105.55 -106.811 96.9853 31.1301 33.3763 -80.0671 -118.233 262.361
28020 2 -2.79376 -37.5263 -17.6868 157.46 -139.884 80.1757 -43.6411 15.9129 -35.6914 -102.683 285.834
5479 2 -5.24463 -36.6887 -16.8059 151.535 -141.105 64.3551 24.9795 62.5654 -51.7899 -111.111 298.978
7597 1 -6.88455 -36.4887 -17.0659 -224.123 329.401 -163.37 -59.611 -78.0622 131.096 -301.089 597.454
5570 1 -3.68049 -36.3254 -17.1007 -315.906 241.007 -156.014 8.91881 -104.418 75.1443 -321.667 544.573
12779 2 -2.83765 -35.6499 -15.8666 108.401 -120.683 92.0384 -6.24283 71.7269 -29.3238 -105.907 259.094
12310 2 -3.76422 -35.1537 -18.2258 111.065 -107.733 90.0761 22.7297 34.5313 -35.3614 -108.516 229.345
13187 2 -6.3372 -34.1316 -20.2574 121.854 -93.9524 79.8002 24.2657 27.2241 12.425 -117.634 209.09
18069 2 -1.7653 -33.473 -18.5304 184.31 -145.765 93.4927 3.68395 -31.0045 -33.2408 -106.36 305.713
22672 1 -3.35456 -33.6644 -18.6459 -335.249 245.761 -147.173 -57.007 -10.7002 42.4387 -316.629 528.363
7944 2 -3.9072 -33.2605 -20.0917 209.416 -144.57 62.7303 41.6425 -10.4698 20.7804 -110.241 318.943
7592 2 -4.0326 -32.7271 -17.5211 107.791 -101.049 65.5247 22.3461 54.5853 -21.0692 -110.579 219.868
15283 2 -6.52353 -32.6629 -17.3711 125.744 -57.7351 50.5354 5.78852 70.6042 -9.58755 -110.537 202.121
12595 2 -5.23236 -32.4388 -15.2109 70.6374 -57.5828 96.5207 0.450328 78.0052 -13.3784 -105.617 198.043
7874 1 -5.18286 -32.0277 -16.7165 -202.111 131.256 -142.976 0.940636 -148.096 -6.02254 -316.629 401.031
15635 2 -1.04116 -33.7867 -14.7205 98.0433 -153.358 120.039 -15.1504 37.6153 -63.4602 -105.014 293.651
5289 2 -0.234657 -37.9048 -17.9838 104.029 -140.973 54.3732 -4.77212 18.3503 -60.3256 -100.201 249.643
2402 1 0.731989 -37.1653 -19.0475 -209.88 222.649 -112.292 -53.4047 -85.9163 164.234 -330.074 515.766
10821 2 -0.166046 -36.4444 -20.174 123.119 -114.556 76.1543 29.5974 16.8729 -87.0512 -106.388 271.567
7619 2 2.77425 -36.3323 -15.6369 145.175 -154.599 79.3591 -22.8937 15.7416 -89.515 -97.8883 317.523
13073 2 1.43993 -36.1162 -18.0699 125.241 -125.465 38.2585 27.8592 54.979 -85.5902 -101.05 286.332
17726 1 2.49388 -35.4757 -16.9771 -310.273 295.395 -119.04 2.86078 -56.9641 206.207 -335.802 651.847
17842 2 3.79096 -35.5064 -17.899 189.252 -146.539 29.9817 9.06745 57.9723 -104.425 -100.577 357.329
7888 1 4.25135 -34.5847 -19.1366 -416.047 344.176 -155.571 -35.6881 -114.457 179.672 -329.572 766.639
15263 2 2.95647 -33.998 -19.9074 176.79 -196.206 99.3915 22.4876 44.7692 -81.1667 -106.335 378.868
10386 2 2.12352 -33.9643 -16.6642 174.166 -215.666 84.5735 -15.1373 -8.78859 -80.5836 -99.8718 381.406
15571 2 0.340682 -33.2456 -20.0397 160.947 -169.831 103.932 -7.19658 -16.3019 -42.0621 -109.089 316.331
10288 1 -0.592453 -32.5091 -18.962 -374.223 369.894 -209.37 46.5657 78.6573 59.3633 -321.496 702.748
10276 1 1.61991 -32.4092 -16.6518 -363.447 409.452 -188.045 56.7311 78.806 106.84 -335.547 745.051
17783 2 0.470342 -32.1754 -17.7272 174.641 -192.891 98.3656 -28.1747 -31.8698 -36.0109 -103.372 349.547
12564 2 0.902536 -32.0763 -15.3273 126.122 -198.439 144.832 -41.4715 -35.8403 -42.1953 -98.4366 355.13
10262 1 1.72316 -33.5958 -20.8929 -360.562 328.058 -190.798 -69.2552 -22.2552 124.783 -313.014 669.851
17596 1 3.20675 -37.6651 -14.9055 -262.324 252.481 -97.2786 66.3303 -25.0197 110.974 -337.976 509.235
17823 1 6.98163 -37.8499 -17.7086 -168.815 37.6238 -19.9324 -71.6503 -30.225 140.636 -326.047 333.954
19966 2 5.0658 -35.598 -20.0985 192.412 -124.026 97.9355 -13.1436 45.5189 -75.6662 -100.799 321.05
7400 2 5.24399 -33.537 -18.426 230.207 -198.143 72.1896 42.1795 78.2538 -103.071 -104.441 443.109
22882 2 7.03288 -36.9012 -19.0449 98.9044 -72.1904 93.4394 21.7038 44.5902 -75.5214 -102.4 229.906
19879 2 6.87001 -36.8132 -16.4924 118.237 -4.96491 27.338 70.2235 23.3968 -29.4548 -104.961 176.865
17944 1 6.26497 -36.6248 -20.44 -249.343 209.885 -220.381 13.9318 -77.5444 170.663 -333.053 551.75
17609 2 9.2332 -35.8444 -16.7395 88.9751 -35.308 59.292 58.4134 -3.48441 -19.5679 -114.996 155.112
7636 1 7.74735 -35.5323 -16.097 -218.711 117.206 -147.571 -148.67 -47.5674 29.5699 -311.102 411.975
17668 1 10.4974 -34.8428 -17.0162 -231.225 235.931 -283.195 35.2195 118.031 102.147 -294.17 567.477
4902 2 10.4121 -34.4325 -18.5593 115.296 -147.989 195.76 -16.714 -49.2465 -106.063 -116.633 372.612
17676 2 7.14442 -34.3169 -16.7961 155.36 -155.428 87.4474 45.3822 77.3793 -62.2756 -111.348 340.398
7934 1 10.1359 -33.7492 -20.0692 -287.033 314.31 -353.847 56.2154 46.8022 174.898 -303.394 716.991
22760 2 10.1529 -33.6288 -15.9728 82.0509 -172.285 174.584 -16.0807 -48.9556 -30.8609 -125.377 328.034
22665 2 8.65809 -33.3858 -20.5355 169.946 -157.258 147.307 -3.5887 30.5761 -77.5628 -112.769 347.935
24994 2 5.2411 -33.1769 -15.6735 262.316 -249.732 94.6663 9.25204 59.8434 -94.6623 -102.004 492.279
7717 1 5.98967 -33.1595 -17.0606 -450.265 406.555 -158.147 -44.714 -193.346 222.673 -321.087 914.372
12663 1 9.76935 -32.3301 -15.1393 -84.2889 368.3 -367.478 -70.4796 17.8057 84.5309 -281.33 671.186
17688 2 10.9831 -32.3881 -19.9042 172.287 -209.072 149.011 -41.5677 -21.9003 -87.4986 -121.194 408.277
22663 2 13.0203 -37.8855 -20.1106 77.0653 -126.89 122.602 129.223 -79.1806 -41.9138 -106.344 356.558
15087 1 13.0743 -36.4514 -16.2051 -265.592 368.391 -259.648 -96.5061 102.601 150.649 -292.609 725.126
22280 2 14.3691 -36.3427 -17.0368 162.251 -225.872 127.529 52.7017 -84.3105 -86.3778 -120.383 436.359
22761 2 14.462 -35.858 -19.5237 151.005 -183.028 173.575 52.7858 -65.497 -62.2062 -118.561 390.467
10065 2 11.8902 -35.5755 -16.6591 128.431 -141.332 119.731 5.3583 -67.8863 -54.0685 -122.008 305.259
18337 1 15.1738 -35.4258 -18.1243 -343.67 411.717 -296.038 -64.2974 177.957 202.579 -289.454 876.026
13037 2 14.8379 -33.9822 -17.4634 157.676 -163.344 159.277 20.2728 -93.9682 -102.012 -124.141 403.128
20258 1 15.4723 -32.4862 -17.4605 -279.162 230.993 -335.026 -23.7043 139.683 95.7761 -288.745 616.131
13246 2 16.1379 -32.5307 -18.9775 147.112 -158.805 159.995 -9.03736 -59.8879 -53.8559 -127.603 342.634
17761 1 15.8022 -32.2992 -20.5643 -331.358 364.579 -312.605 47.9918 80.0762 104.16 -277.123 728.233
22679 2 16.5255 -32.2314 -16.3076 117.419 -115.746 182.694 25.205 -53.7294 -20.6485 -119.602 292.732
15450 2 16.6928 -35.6706 -18.3562 178.143 -185.837 137.091 -33.072 -87.8704 -92.689 -122.127 414.057
20188 1 13.8434 -36.6303 -20.7736 -242.712 323.263 -352.096 -128.326 120.757 58.2146 -310.316 705.349
12696 2 13.0281 -36.9963 -14.7638 95.683 -161.363 150.963 71.7287 -31.4033 -89.5403 -119.96 354.661
22779 1 22.6121 -37.471 -16.1613 -271.951 249.898 -207.909 143.174 95.9093 17.1308 -307.578 577.044
17589 2 20.5973 -37.3927 -19.1558 89.353 -110.227 74.1144 -100.456 -34.8001 -59.4677 -119.816 285.552
15096 2 18.5794 -37.3198 -17.0532 133.406 -157.352 114.702 -112.297 -99.2437 -73.0675 -116.21 403.545
25070 1 22.0498 -36.7238 -18.9008 -298.554 161.41 -113.864 161.307 58.4654 135.324 -295.293 551.342
20580 2 17.2948 -35.3768 -16.0552 155.144 -185.667 172.848 -32.0971 -74.8963 -87.6688 -120.909 406.787
25462 2 22.3015 -36.3508 -17.3278 142.842 -77.3417 91.6183 -49.2136 -27.6361 -30.0987 -116.375 228.257
20284 1 17.9801 -35.8821 -17.3937 -325.102 331.419 -279.887 160.455 172.807 191.964 -293.132 825.078
10260 2 19.1296 -34.9211 -17.9415 160.461 -117.057 140.003 -62.617 -64.9419 -81.7263 -122.473 340.896
27770 1 22.6605 -33.8812 -19.3674 -369.25 230.26 -195.499 69.7054 -50.1554 -20.9269 -297.972 555.763
20441 2 18.9067 -33.4889 -20.0168 138.592 -166.904 135.688 -51.8553 -28.5054 -36.2964 -128.802 326.965
27647 2 21.1906 -33.4796 -18.9643 168.564 -115.263 96.4201 -37.9876 12.7743 7.63639 -121.597 265.103
20341 1 19.6805 -33.5541 -18.6395 -319.888 236.693 -252.155 69.4427 43.9282 51.5033 -286.536 552.164
15275 2 19.4503 -32.32 -17.7213 133.499 -104.54 116.672 5.67434 -29.2729 -0.723809 -121.204 235.816
18215 2 22.4438 -35.4439 -19.7462 167.774 -112.028 85.2254 -69.7036 -5.00221 -66.8477 -120.268 300.105
25422 2 22.9859 -33.9373 -15.4267 130.232 -120.238 140.327 23.6441 -13.039 4.59003 -110.596 260.031
307 2 27.174 -37.7196 -17.8739 210.587 -56.0125 -19.6748 -39.8028 39.6837 -14.1937 -115.478 269.795
29795 2 25.8777 -37.4636 -19.9299 229.529 -90.2116 -25.6519 -64.9063 17.6956 -67.0329 -116.596 335.883
25 1 26.7033 -36.592 -18.8326 -437.359 109.346 21.1705 87.3272 -77.7963 2.36341 -301.272 547.272
27572 2 27.9325 -36.0323 -19.6962 170.618 -87.0362 39.796 -50.755 48.1823 16.1655 -119.313 255.48
25258 2 26.1224 -35.2763 -18.0787 242.663 -74.82 -18.0198 -47.1805 21.6137 42.963 -114.505 315.603
419 2 27.9365 -34.0535 -16.6147 158.544 -69.3305 19.1397 -74.9895 33.1198 56.2227 -115.815 263.131
17846 1 26.5342 -33.8331 -17.3722 -449.704 178.912 24.4422 114.613 -41.8542 -117.125 -307.238 638.541
119 2 23.4837 -33.6938 -18.0549 188.716 -106.468 52.3676 -21.884 39.724 36.6202 -114.802 275.082
25080 2 25.3644 -33.2145 -16.4332 212.33 -120.798 55.6511 -21.0509 -10.6459 46.9002 -110.355 302.649
22584 2 23.1978 -33.2707 -20.6495 174.255 -125.395 150.47 -25.1095 15.8108 1.72166 -116.985 293.051
27842 1 23.7747 -33.0763 -16.554 -337.066 240.43 -169.504 -5.99422 -10.7236 -47.4887 -311.83 521.565
5489 2 26.8603 -32.5796 -18.3417 179.444 -48.7572 -16.0545 -55.2715 33.0117 29.0323 -113.543 246.262
25262 1 28.7644 -35.2691 -20.7931 -305.985 181.819 -191.208 101.461 -75.7785 9.24089 -298.21 493.461
25319 2 29.9777 -37.6167 -15.7106 88.9133 -22.0008 -11.208 -76.2912 20.6076 17.7042 -121.876 175.775
28235 2 32.328 -37.6954 -19.9725 48.8807 58.5642 74.9673 -54.8498 -0.732982 -1.62017 -117.098 97.7582
27791 2 34.353 -37.345 -15.6579 151.49 43.7626 -41.256 -79.6389 -0.0944022 -46.0733 -115.857 231.057
27651 1 30.5807 -37.0939 -17.084 -163.053 -56.2867 -27.9573 154.677 -73.6764 -6.2086 -289.305 321.561
20023 2 32.1549 -37.1042 -17.0132 93.214 50.8338 -0.219863 -80.6313 17.3898 -12.8081 -121.372 165.74
5584 1 33.3927 -36.3291 -16.3828 -298.466 -51.5588 52.98 157.487 3.88433 94.7012 -298.305 446.161
22892 2 29.8764 -35.6736 -17.3791 80.9031 -13.1378 5.8367 -67.836 50.2006 2.24318 -123.027 169.705
25092 2 32.6151 -35.4453 -15.2182 84.6787 19.4551 37.5693 -76.0055 1.29287 14.9102 -118.065 146.298
309 2 33.9148 -35.4416 -17.6637 162.093 -11.6691 -40.2763 -36.6876 -18.5806 -51.2184 -117.582 221.192
27785 2 30.3947 -34.1954 -15.3647 41.8608 -9.47304 66.1269 -73.5883 5.94547 73.0307 -119.241 191.89