ITEM: TIMESTEP
320000
ITEM: NUMBER OF ATOMS
29952
ITEM: BOX BOUNDS pp pp pp
-2.5615833775063237e+01 3.5601128117061187e+01
-7.2104085168643607e+01 8.2089379502842334e+01
-2.1035324467156940e+01 3.4903177627851115e+01
ITEM: ATOMS id type x y z v_StrAtomXX v_StrAtomYY v_StrAtomZZ v_StrAtomXY v_StrAtomXZ v_StrAtomYZ c_PEAtom v_VMS
1 1 -24.4564 -67.6203 -19.4756 873.966 1497.21 997.444 -109.944 -17.1586 26.1842 -827.394 604.914
2 1 -21.8565 -70.6347 -16.0212 982.734 1284.07 858.635 68.3266 -13.1355 -56.0681 -827.565 409.334
3 1 -21.932 -67.6673 -17.5513 934.557 1232.71 864.87 42.6474 -26.3531 7.38596 -838.766 349.62
6 2 -20.5504 -67.6895 -18.3696 -413.322 -664.497 -351.117 -17.169 -206.42 -34.1283 -239.436 463.453
7 2 -24.5023 -69.1724 -20.228 -513.888 529.127 -368.406 -0.241356 -28.0399 246.048 -244.538 1068.31
8 2 -22.0038 -69.1548 -16.8009 -553.074 387.222 -422.254 -48.4039 23.7239 -177.937 -248.356 939.129
9 2 -23.1125 -67.6011 -18.6277 -755.12 -647.887 -273.788 -48.9494 222.076 -84.2248 -244.082 606.62
10 2 -22.8825 -70.623 -14.7917 -528.176 -685.21 -268.868 -51.663 -98.357 27.8511 -251.622 414.702
12 2 -21.9169 -66.2755 -16.7252 -588.234 355.975 -455.913 62.0583 44.9188 97.0216 -250.671 911.015
107 2 -24.702 -66.2325 -20.3993 -445.442 521.045 -331.993 -57.9304 72.4051 -254.936 -256.389 1028.64
2497 1 -19.1377 -67.716 -19.1965 1100.36 1208.35 986.223 84.9391 -43.1714 -10.5584 -837.079 254.133
2501 2 -20.3853 -70.6871 -15.3601 -479.921 -591.162 -241.696 -31.9957 207.062 -13.2088 -246.913 477.331
2503 2 -19.0692 -69.1357 -19.9937 -580.594 363.543 -453.168 -91.8465 -19.7838 115.47 -251.802 924.016
2603 2 -18.9945 -66.2654 -19.992 -533.966 455.409 -373.274 44.8626 -38.5656 -213.74 -249.896 996.621
2512 1 -19.3923 -70.721 -14.069 840.541 1289.61 1184.09 19.5699 47.6242 29.9213 -827.726 419.583
2500 1 -19.0461 -70.6524 -20.7317 1035.01 1466.98 797.809 35.2311 -33.0278 14.0128 -827.694 594.066
2505 2 -17.9437 -67.6924 -18.0957 -583.515 -669.604 -270.732 40.0226 219.265 24.8684 -237.388 532.037
2506 2 -17.9181 -70.6455 -14.6681 -509.294 -582.565 -405.83 -92.9779 -284.465 62.0069 -241.681 551.257
11 2 -24.5364 -72.1008 -20.4373 -545.591 523.05 -355.326 -49.0899 67.9943 -260.173 -242.585 1095.01
5 2 -25.4689 -70.7335 -14.6226 -492.682 -675.434 -282.799 84.6148 197.968 38.666 -242.466 509.258
2412 2 -22.105 -72.0703 -16.7823 -560.719 426.997 -529.158 -8.91653 18.1667 111.174 -250.796 991.823
2507 2 -18.9165 -72.1409 -19.967 -603.784 375.58 -549.661 40.9978 -72.6577 -111.945 -247.099 983.641
4 1 -24.4335 -70.5728 -21.1454 943.406 1398.29 947.154 -8.22824 7.696 47.3499 -836.548 460.796
2498 1 -16.5846 -70.6522 -15.612 851.441 1272.77 1199.77 13.6335 -92.7915 67.5091 -837.128 438.35
2499 1 -16.6295 -67.7095 -17.1679 979.608 1283.75 964.648 -62.1503 -6.11754 -10.1257 -843.863 330.578
2502 2 -15.4612 -67.9116 -18.2896 -584.293 -615.543 -146.681 -34.1024 -223.935 75.0388 -233.029 613.986
2504 2 -16.565 -69.1479 -16.3563 -525.346 397.77 -653.168 -27.993 33.4971 -107.636 -242.374 1013.39
2508 2 -16.5068 -66.2358 -16.4796 -518.793 514.532 -417.526 -19.4439 -40.498 199.645 -247.751 1048.33
4993 1 -14.3389 -67.742 -19.4813 976.597 1304.15 1080.53 -23.8516 -120.85 -143.716 -841.656 437.645
4994 1 -11.7839 -70.532 -16.119 890.456 1270.11 961.349 -18.4419 48.941 61.5584 -830.093 376.593
4995 1 -11.7288 -67.5548 -17.662 874.963 1353.56 1173.7 52.0955 -23.2192 4.34544 -828.852 430.282
4999 2 -14.2816 -69.1297 -20.3493 -535.806 296.487 -490.105 -46.5496 -3.56018 137.856 -246.474 848.714
5000 2 -11.814 -69.0282 -16.817 -519.055 478.606 -541.416 49.7765 -57.5271 -161.297 -245.879 1055.25
5001 2 -12.973 -67.5949 -18.6707 -626.129 -628.024 -389.079 28.0929 213.036 75.691 -241.277 460.818
5002 2 -12.9762 -70.614 -15.0596 -841.258 -650.51 -248.794 -55.6952 -96.7547 30.1928 -244.309 560.814
5004 2 -11.6987 -66.0895 -16.8453 -484.576 356.705 -494.248 -57.7071 -65.497 138.651 -256.618 892.478
5099 2 -14.5643 -66.2662 -20.272 -502.655 629.49 -359.997 14.3541 -9.38721 -256.345 -238.261 1156.99
4997 2 -15.3871 -70.5791 -14.5653 -703.131 -660.672 -424.196 94.2645 226.719 88.4707 -237.078 521.639
4998 2 -10.4223 -67.669 -18.6126 -452.62 -641.363 -395.901 -50.5629 -244.397 -18.7969 -241.812 487.305
7493 2 -10.4793 -70.4548 -15.1444 -413.198 -674.81 -387.4 39.6355 124.623 6.00722 -248.102 356.749
4908 2 -16.4692 -72.0451 -16.5014 -478.608 577.945 -418.037 -90.5993 -91.7931 206.183 -248.766 1110.59
7404 2 -11.7003 -71.9234 -16.9897 -506.729 512.382 -427.274 51.1344 54.9546 160.446 -254.008 1028.62
98 1 -21.9079 -64.7456 -15.9689 1075.18 1603.4 817.881 -76.0826 -37.0373 -21.1369 -819.225 709.898
103 2 -24.5088 -63.2079 -20.3087 -528.603 575.746 -521.741 -90.7077 -110.844 176.6 -250.32 1169.26
104 2 -21.9812 -63.2411 -16.7506 -554.353 493.12 -478.007 8.72483 7.61947 -154.695 -246.929 1046.54
106 2 -23.2009 -64.7774 -14.9818 -420.906 -686.424 -100.604 28.4992 -206.694 -10.0175 -248.207 623.734
2597 2 -20.559 -64.6923 -15.0863 -465.823 -753.978 -366.363 88.1211 109.272 73.8123 -248.663 443.9
2599 2 -18.9048 -63.2708 -20.0176 -505.467 432.664 -482.851 -4.51779 1.2833 139.158 -252.824 957.886
2596 1 -19.0735 -64.7697 -20.8001 984.716 1516.57 877.255 34.8441 -162.412 -61.0493 -819.955 667.473
97 1 -24.493 -61.7618 -19.5058 964.013 1379.75 1110.61 42.6688 -98.7877 -32.6488 -826.169 413.906
99 1 -21.9133 -61.7823 -17.545 919.824 1294.21 1039.43 10.4659 -23.0746 -2.65792 -839.863 334.119
102 2 -20.5878 -61.81 -18.4253 -367.708 -617.842 -188.909 -89.3735 -340.676 116.609 -242.269 743.099
105 2 -23.1285 -61.8553 -18.628 -528.931 -719.162 -328.981 -27.7251 310.026 -7.15414 -230.207 636.407
108 2 -22.0936 -60.3343 -16.7527 -452.935 414.223 -460.134 -89.7518 -12.9043 168.224 -253.329 931.57
2593 1 -19.1242 -61.8309 -19.2614 1150.95 1441.55 977.023 -122.867 -95.8621 -60.1518 -825.677 498.956
2699 2 -19.0508 -60.3051 -19.9613 -549.79 495.019 -435.542 72.0609 -30.3296 -164.089 -246.958 1041.36
203 2 -24.4879 -60.2602 -20.2326 -429.271 460.073 -369.694 -23.8908 19.2404 -200.756 -258.649 930.177
2601 2 -17.9732 -61.8367 -18.1 -237.26 -734.681 -148.25 56.9107 317.762 36.1749 -242.505 784.976
2608 1 -19.3876 -64.6808 -14.0205 659.016 1430.99 947.831 24.0806 10.892 19.8248 -824.14 677.992
101 2 -25.6443 -64.8629 -14.4948 -732.71 -728.259 -386.069 -48.2166 196.41 -24.3692 -246.926 493.076
100 1 -24.4371 -64.7202 -21.107 906.217 1551.65 984.775 88.9395 100.181 -5.59643 -817.356 652.677
2602 2 -18.0326 -64.8748 -14.8045 -342.49 -603.125 -329.85 55.7708 -236.556 -51.4737 -254.166 506.498
2594 1 -16.6127 -64.7038 -15.6296 1084.43 1541.26 1099.56 45.4595 -6.78683 6.64453 -808.277 456.6
2600 2 -16.5335 -63.2174 -16.4548 -506.369 520.798 -359.139 98.8827 -149.583 -245.323 -259.999 1096.6
5090 1 -11.6664 -64.6346 -16.1207 987.399 1295.37 1065.84 -32.0407 -31.692 -104.962 -832.958 340.566
5095 2 -14.4166 -63.2847 -20.2992 -498.812 426.74 -347.533 15.0945 -1.46718 210.86 -254.399 934.661
5096 2 -11.8213 -63.1642 -16.9669 -463.488 494.132 -471.385 -69.6016 29.3672 -173.662 -249.406 1016
5098 2 -12.7869 -64.5535 -14.9218 -518.251 -618.842 70.0572 -69.109 -347.827 84.1767 -236.825 902.187
5093 2 -15.3355 -64.6826 -14.6287 -312.706 -715.003 -311.897 32.6514 253.18 41.4441 -248.399 602.347
2595 1 -16.5793 -61.7459 -17.2005 1131.67 1480.37 942.202 62.475 90.3465 74.7879 -814.487 525.862
2598 2 -15.3671 -61.6687 -18.3093 -501.977 -706.204 -211.232 -36.4989 -151.101 34.5855 -254.029 511.565
2604 2 -16.5075 -60.2307 -16.4264 -462.497 592.208 -407.96 37.3352 23.2275 222.471 -254.333 1100.97
5089 1 -14.3128 -61.7461 -19.4662 874.497 1568.69 842.226 -30.6243 27.4302 50.0632 -813.304 719.674
5091 1 -11.7291 -61.6655 -17.6875 775.513 1426.58 1015.99 38.1894 -46.6073 14.5135 -831.318 580.238
5097 2 -12.8686 -61.6537 -18.791 -541.911 -684.062 -384.537 77.3736 143.366 73.8391 -249.544 404.132
5100 2 -11.7845 -60.2092 -16.845 -560.216 476.101 -492.367 3.43202 17.8097 186.603 -246.396 1055.32
5195 2 -14.4619 -60.2568 -20.3006 -645.704 307.117 -578.454 27.9441 -6.03543 -14.1697 -250.318 922.695
5094 2 -10.2916 -61.6215 -18.4225 -454.846 -726.119 -501.09 -13.7935 -163.408 9.67741 -240.722 379.66
2692 1 -19.1024 -58.8416 -20.7981 975.311 1293.49 946.642 37.2994 -63.0695 -95.0374 -837.529 392.916
193 1 -24.4467 -55.847 -19.5595 1083.3 1378.78 961.858 -14.8655 -64.3363 82.3786 -826.482 413.983
194 1 -21.9647 -58.8446 -16.0038 878.988 1405.69 990.68 26.4655 -71.4252 33.7602 -829.105 501.885
195 1 -21.936 -55.9386 -17.5967 872.493 1464.5 1202.35 46.534 -5.53439 39.5809 -827.034 524.683
198 2 -20.4833 -55.954 -18.304 -499.119 -588.737 -366.529 78.5414 -325.055 -74.4445 -245.156 624.186
199 2 -24.5838 -57.3277 -20.3495 -539.735 549.778 -459.126 56.0803 25.7755 217.984 -247.616 1122.36
200 2 -22.1827 -57.3772 -16.7626 -465.752 488.459 -472.043 6.41056 -1.59581 -213.049 -252.642 1026.09
201 2 -22.9749 -55.8634 -18.8425 -338.098 -653.498 -247.801 3.90991 240.744 -22.715 -243.468 558.191
202 2 -22.9998 -58.8215 -14.7484 -408.718 -776.641 -141.717 -55.3113 -198.315 57.964 -240.62 664.933
204 2 -21.9821 -54.4001 -16.8294 -537.293 625.864 -464.997 65.0858 65.7653 194.181 -242.203 1188.64
299 2 -24.5155 -54.3862 -20.3201 -522.467 474.887 -420.294 89.6912 -71.0388 -207.943 -249.675 1035.49
2689 1 -19.1736 -55.878 -19.2155 908.261 1282.24 1237.62 -35.2909 45.5359 67.4618 -831.204 385.715
2693 2 -20.5385 -58.7544 -15.2833 -537.133 -680.679 -345.691 18.1533 195.524 36.3353 -247.501 452.078
2695 2 -18.9956 -57.3967 -20.0038 -502.582 461.801 -418.078 -100.23 -34.569 253.757 -245.78 1040.47
2795 2 -19.1345 -54.5184 -20.1319 -480.008 387.162 -410.32 48.8455 -56.8881 -205.07 -256.984 916.209
2704 1 -19.4352 -58.6832 -14.1398 1040.1 1457.58 1001.43 7.39591 -70.6053 -122.833 -829.963 502.308
197 2 -25.6108 -58.82 -14.5285 -594.935 -813.478 -289.91 -13.6909 133.079 -32.8773 -246.689 514.196
298 2 -23.1054 -52.9577 -14.9919 -504.004 -715.918 -113.727 -29.0875 -180.767 51.6763 -239.453 623.304
27654 2 -25.571 -55.8087 -18.3757 -401.227 -666.532 -215.557 -21.6968 -179.792 10.3755 -251.233 502.822
2788 1 -19.1766 -52.9679 -20.7744 1076.65 1394.36 924.667 65.9352 -151.748 20.6894 -823.843 505.7
2794 2 -17.9096 -52.8035 -14.8756 -386.247 -642.547 -311.668 62.6294 -282.571 -37.0051 -248.212 588.031
2697 2 -17.9446 -55.7761 -18.1235 -394.131 -667.075 -300.148 19.209 284.633 44.4716 -239.309 599.225
2698 2 -17.9111 -58.646 -14.7859 -277.792 -679.498 -432.381 -26.6377 -201.598 90.7957 -237.689 521.49
2690 1 -16.5877 -58.7269 -15.685 831.773 1280.38 1079.1 -111.617 3.4054 36.0805 -834.404 439.067
2691 1 -16.5682 -55.8114 -17.287 1020.09 1379.34 959.648 35.9406 -27.1505 28.1165 -830.336 403.593
2694 2 -15.3655 -55.8561 -18.3475 -495.713 -661.308 -234.365 26.5845 -171.519 -72.8391 -246.607 495.273
2696 2 -16.6358 -57.3045 -16.5066 -597.689 423.075 -574.888 33.2251 7.14944 -102.218 -245.538 1026.65
2700 2 -16.496 -54.3414 -16.4644 -563.402 359.909 -491.233 -53.3185 -76.6997 105.724 -251.093 922.381
5185 1 -14.3127 -55.7231 -19.5805 1072.59 1391.99 956.404 -39.5911 45.0549 39.9485 -828.374 410.128
5186 1 -11.7384 -58.7342 -16.0472 804.718 1529.08 909.134 -67.4377 -70.6311 -119.111 -824.183 728.79
5187 1 -11.7269 -55.7557 -17.704 939.692 1284.14 1143.21 -11.3987 -20.9891 30.0204 -831.193 307.208
5191 2 -14.4454 -57.2332 -20.3348 -556.653 756.813 -471.431 -22.0641 -19.5114 159.052 -239.411 1303.46
5192 2 -11.8748 -57.2197 -16.8982 -501.07 572.996 -314.988 19.3183 13.5893 -329.965 -247.238 1147.47
5193 2 -12.8474 -55.7011 -18.8693 -408.12 -602.604 -240.897 -12.511 261.122 -7.55132 -247.254 550.913
5194 2 -12.8128 -58.8492 -14.8837 -538.727 -641.408 -183.412 82.8907 -152.335 -80.662 -248.783 532.001
5196 2 -11.7592 -54.3486 -16.8261 -485.328 366.531 -398.182 67.7847 40.0768 217.928 -254.267 905.596
5291 2 -14.5447 -54.2644 -20.3229 -493.753 383.866 -441.465 124.565 -109.576 -143.281 -250.33 933.392
5189 2 -15.3519 -58.6472 -14.6428 -649.886 -655.202 -335.887 13.7988 149.592 -16.2353 -244.393 410.839
5282 1 -11.64 -52.8512 -16.0843 985.215 1379.36 939.076 -30.7578 12.8306 -71.6946 -824.534 440.925
2786 1 -16.5625 -52.8502 -15.7838 970.228 1321.13 1019.66 -112.041 73.113 -102.45 -826.015 439.789
5285 2 -15.3037 -52.8797 -14.7539 -496.267 -689.091 -278.695 -41.7292 196.503 -118.514 -243.833 538.212
2519 2 -19.4941 -72.2103 -13.3276 -488.311 577.759 -409.309 -136.2 46.636 -242.329 -250.378 1138.8
2615 2 -19.6332 -66.1746 -13.2203 -451.876 721.689 -532.433 20.976 3.35166 -192.238 -246.543 1261.15
16 1 -24.0865 -70.6293 -13.7301 1096.88 1450.26 925.246 -63.5626 7.79039 64.9846 -819.489 489.853
13 1 -24.1862 -67.6832 -12.1025 1007.37 1330.1 933.61 34.3128 34.1952 9.07313 -819.827 375.083
14 1 -21.6384 -70.7445 -8.71113 1014.68 1311.23 1128.26 -18.4959 14.6056 82.7862 -823.16 298.977
15 1 -21.5966 -67.8113 -10.2462 902.195 1557.68 689.547 -22.1857 27.3497 100.118 -817.717 805.019
18 2 -20.3829 -67.6985 -11.2312 -699.872 -790.131 -320.479 -6.9879 -28.3832 30.7928 -250.602 437.878
19 2 -24.182 -69.1635 -12.905 -540.51 551.027 -390.548 -46.0663 -57.7933 226.884 -253.806 1105.02
20 2 -21.5046 -69.3298 -9.53685 -624.19 426.706 -472.693 0.901795 1.07737 -116.417 -252.606 1004.39
21 2 -22.9842 -67.839 -11.0301 -347.214 -743.245 -344.996 -52.0129 102.566 -49.1195 -251.97 452.368
22 2 -23.0584 -70.6903 -7.95649 -502.05 -531.874 -476.041 -70.2199 -283.416 99.7986 -248.645 536.644
24 2 -21.6835 -66.2933 -9.39424 -502.623 451.983 -387.751 -66.8494 -18.9363 182.643 -249.608 964.038
119 2 -24.0263 -66.2263 -12.8569 -526.155 396.768 -371.814 -51.1485 26.1139 -208.773 -259.343 934.781
2509 1 -19.4109 -67.7142 -12.491 884.196 1712.67 974.622 -28.1951 159.29 -2.59154 -811.019 835.56
2515 2 -19.627 -69.2868 -13.2019 -436.1 729.302 -404.479 61.2627 40.1905 284.209 -251.157 1257.28
2513 2 -20.4963 -70.7184 -7.5391 -476.471 -592.481 -227.516 15.8441 340.449 56.4137 -244.247 679.952
2424 2 -21.4852 -72.2674 -9.53667 -474.265 526.515 -336.99 -22.8361 -17.5065 284.496 -248.655 1062.22
2518 2 -18.0113 -70.6505 -7.94294 -353.984 -609.702 -1.82873 -60.8955 -346.577 45.3683 -240.284 810.62
2517 2 -17.9595 -67.6982 -11.7185 -607.071 -677.217 -341.353 8.42387 274.225 18.6789 -246.767 566.589
5008 1 -13.9663 -70.5869 -13.8191 869.889 1464.8 973.001 36.8286 58.3785 5.76634 -828.342 563.562
2510 1 -16.8318 -70.7287 -9.09471 1199.32 1477.42 1085.24 -29.7703 19.4697 35.7354 -816.349 360.146
2511 1 -16.7872 -67.7267 -10.7063 854.276 1517.08 998.894 77.4144 -227.869 11.1148 -828.465 733.824
2514 2 -15.3887 -67.7624 -11.5504 -360.889 -624.664 -304.701 84.9254 -336.029 -97.5159 -237.708 690.266
2516 2 -16.935 -69.2076 -9.85854 -483.727 682.105 -406.842 -15.2323 33.0739 -282.966 -247.4 1232.73
2520 2 -16.7741 -66.1894 -9.92744 -493.475 513.147 -425.768 -26.0951 -21.7635 189.071 -250.625 1029.77
5005 1 -13.9395 -67.6394 -12.3072 884.69 1379.28 941.362 10.065 -137.374 -139.174 -835.349 578.644
5006 1 -11.4809 -70.5554 -8.66007 948.54 1467.35 1069.1 -36.6113 -216.248 -28.8382 -826.88 606.597
5007 1 -11.5481 -67.4985 -10.2379 1068.27 1547.21 898.163 18.7863 -123.82 -114.186 -816.382 652.654
5009 2 -15.4166 -70.7343 -8.19888 -464.394 -631.057 -321.135 69.9787 180.668 97.5562 -251.612 461.889
5011 2 -13.7889 -69.1084 -13.0151 -555.016 488.054 -577.183 24.3154 15.1452 93.9768 -248.949 1067.97
5012 2 -11.4928 -69.0874 -9.49636 -510.343 744.448 -363.99 52.6237 -52.5862 -263.422 -246.86 1279.47
5013 2 -12.8973 -67.6106 -11.1358 -657.528 -764.17 -329.106 -8.62207 147.944 7.4405 -240.894 469.37
5014 2 -12.8809 -70.6397 -7.7601 -184.222 -651.046 -310.229 52.788 -289.531 -34.9079 -243.735 662.178
5016 2 -11.5253 -66.0418 -9.51043 -580.126 277.175 -486.038 51.1913 82.2751 70.6356 -257.7 840.412
5111 2 -13.8856 -66.114 -13.0709 -506.425 634.444 -496.052 -12.0779 -22.7246 -137.513 -247.48 1161.28
7505 2 -10.2451 -70.5406 -7.69279 -787.528 -705.016 -494.357 -6.12922 108.603 8.14824 -246.536 322.899
5020 1 -14.3513 -70.624 -7.09491 771.382 1538.47 881.512 -2.69144 -178.869 7.24313 -821.56 782.456
27570 2 -25.644 -61.7139 -11.2022 -262.442 -545.742 -351.04 -152.025 -281.826 101.544 -249.983 633.684
113 2 -25.7032 -64.8188 -8.407 -348.428 -627.265 -238.709 6.41649 245.441 17.5549 -256.156 549.686
112 1 -24.2451 -64.8071 -13.7276 877.606 1432.27 1012.03 -43.0938 -111.937 -21.1806 -820.111 543.756
110 1 -21.7184 -64.8147 -8.67803 774.301 1216.84 1109.58 31.7734 86.3334 6.24501 -831.797 430.563
115 2 -24.2214 -63.2984 -12.9653 -423.628 609.165 -291.143 -102.548 -41.3531 371.948 -249.946 1182.83
116 2 -21.5692 -63.4443 -9.63343 -503.642 470.01 -370.49 71.7721 -30.8818 -242.806 -253.629 1015.51
118 2 -23.0589 -64.682 -7.87183 -391.148 -625.202 -493.058 53.4253 -110.055 -65.6513 -249.833 314.872
2611 2 -19.3873 -63.1936 -13.2769 -503.309 382.532 -489.917 -12.6479 -58.764 71.4508 -253.601 893.972
2609 2 -20.4976 -64.7126 -7.59725 -480.205 -600.239 -317.299 34.9165 299.272 31.655 -239.493 579.531
114 2 -20.4888 -61.721 -11.4577 -658.376 -752.712 -382.222 103.317 -16.0581 -119.174 -247.728 431.991
117 2 -23.0551 -61.7552 -11.0469 -377.248 -604.32 -370.727 -77.6117 220.326 38.1344 -250.36 470.265
109 1 -24.2766 -61.7908 -12.0839 871.806 1351.95 1259.4 112.298 -78.5413 53.5899 -820.973 509.527
111 1 -21.6025 -61.9125 -10.3391 943.185 1554.17 874.655 58.1612 38.6258 -45.8753 -817.293 663.93
120 2 -21.4545 -60.4136 -9.4993 -500.385 584.802 -554.793 -55.5239 16.7737 191.975 -249.794 1166.31
215 2 -24.1687 -60.3861 -12.982 -530.332 623.58 -413.703 -17.0133 -10.3075 -233.57 -246.151 1172.77
2605 1 -19.3518 -61.6868 -12.5559 711.028 1482.6 742.567 -65.3095 -12.6074 -46.1123 -830.895 769.174
2711 2 -19.4847 -60.2055 -13.3416 -543.936 599.431 -422.32 -49.9043 -6.53834 -189.637 -244.93 1139.52
124 1 -24.5661 -64.7835 -7.25929 1029.56 1364.85 1040.12 82.0853 36.9255 -25.5618 -816.098 367.767
2614 2 -18.0242 -64.7138 -8.0467 -580.507 -616.656 -165.643 8.63468 -205.708 57.6796 -243.9 570.585
2613 2 -17.9974 -61.6482 -11.7795 -570.482 -817.812 -342.076 5.77761 114.945 44.3044 -244.671 464.176
5104 1 -13.9905 -64.5776 -13.7496 1050.28 1394.66 1015.93 -10.427 -191.467 4.26374 -825.268 491.896
2606 1 -16.8472 -64.7339 -9.15866 1100.45 1349.93 1079.53 -146.028 61.2188 -50.6508 -825.362 388.344
2612 2 -17.0342 -63.2643 -10.0113 -479.649 623.79 -418.639 -34.7386 34.8616 -180.869 -249.19 1122.22
5102 1 -11.4203 -64.5939 -8.7187 1020.54 1158.05 937.893 106.557 12.7145 -26.7976 -828.113 271.673
5105 2 -15.4721 -64.6473 -8.22768 -273.754 -603.546 -178.268 14.4714 361.302 -11.9553 -243.928 736.237
5107 2 -14.0421 -63.1479 -12.9351 -507.43 305.992 -431.704 18.4033 9.21097 158.396 -258.219 826.034
5108 2 -11.2769 -63.165 -9.52651 -599.897 417.477 -446.033 -4.17131 -4.45443 -170.032 -245.712 994.501
5110 2 -12.8598 -64.5446 -7.98977 -304.362 -678.104 -454.298 9.5759 -109.302 -90.2977 -247.459 408.293
5109 2 -12.7572 -61.7888 -11.0947 -801.691 -643.98 -414.606 39.2228 81.0539 39.708 -253.46 377.776
2610 2 -15.3525 -61.6556 -11.2657 -258.889 -759.828 -457.518 13.9445 -136.276 5.31601 -245.286 497.267
2607 1 -16.8513 -61.6956 -10.6326 981.89 1617.38 952.285 45.7383 -19.0304 29.2905 -820.956 658.386
2616 2 -16.9308 -60.1985 -9.82424 -551.762 570.459 -457.962 136.586 78.9631 173.946 -247.83 1152.55
5101 1 -13.9822 -61.7281 -12.0824 766.056 1371.26 948.97 -95.7507 -35.671 -101.292 -824.217 592.564
5103 1 -11.3857 -61.6691 -10.3562 771.49 1434.94 808.029 77.7556 -133.77 -47.0116 -826.205 704.067
5112 2 -11.2577 -60.2205 -9.56316 -465.845 315.787 -374.42 -67.3376 9.68576 185.037 -256.955 815.136
5207 2 -14.0389 -60.235 -12.9242 -499.816 543.11 -317.293 -57.216 101.38 -285.29 -246.896 1102.49
7601 2 -10.1657 -64.6539 -7.70692 -204.186 -573.407 -256.845 -13.3485 283.117 21.3565 -252.068 601.684
5116 1 -14.2364 -64.627 -7.16363 888.569 1378.46 1098.95 63.1133 -7.96263 1.3383 -825.892 439.696
27666 2 -25.6736 -55.7743 -11.3819 -447.95 -557.817 -336.195 -41.775 -242.453 12.8722 -251.187 467.89
2807 2 -19.557 -54.2785 -13.2878 -375.794 377.432 -353.146 38.2469 -88.7586 -274.806 -260.736 897.431
208 1 -24.2634 -58.8086 -13.7098 1028.92 1674.99 740.459 -6.37544 -118.944 -36.0125 -822.633 856.409
205 1 -24.2652 -55.8158 -12.1949 1063.54 1294.64 1086.65 29.7414 24.9101 -26.1801 -822.563 234.886
206 1 -21.6283 -58.979 -8.71513 929.037 1477.31 1257.3 4.2436 -165.927 -69.9366 -824.242 570.706
207 1 -21.6598 -55.8848 -10.2756 890.937 1732.77 907.811 -89.2124 56.0252 -37.2656 -815.428 855.702
210 2 -20.5019 -56.0718 -11.3476 -552.794 -627.71 -255.894 66.5468 -228.984 -98.3303 -242.066 561.78
211 2 -24.2078 -57.2854 -12.9865 -595.26 567.855 -441.015 -6.06348 4.8492 166.171 -251.59 1131.48
212 2 -21.6037 -57.4077 -9.42275 -456.938 896.925 -485.768 -6.95542 46.0729 -245.633 -243.996 1435.38
213 2 -23.0527 -55.8583 -11.0728 -338.898 -666.74 -215.514 16.2166 280.108 -9.81764 -248.15 632.151
214 2 -23.0119 -59.0372 -7.77647 -153.19 -686.221 -215.739 -18.8601 -308.966 -28.4503 -244.051 737.949
216 2 -21.55 -54.2432 -9.65929 -490.173 716.044 -428.372 -21.5116 -42.2305 146.378 -252.274 1206.34
311 2 -24.0943 -54.3444 -12.972 -517.533 581.626 -479.081 49.4361 -25.9403 -189.026 -249.963 1133.1
2701 1 -19.3778 -55.7571 -12.5157 948.433 1409.51 1202.31 43.1415 95.402 -77.1713 -820.814 459.07
2705 2 -20.472 -58.903 -7.56416 -558.004 -689.259 -277.119 21.3381 267.163 37.3028 -242.209 593.852
2707 2 -19.54 -57.19 -13.4155 -544.65 552.276 -556.226 138.689 125.359 231.225 -244.691 1217.1
2709 2 -18.0278 -55.7741 -11.6173 -357.664 -606.757 -225.223 -46.4275 323.197 70.5367 -247.671 668.834
2806 2 -17.8507 -52.6893 -7.84633 -453.214 -746.897 -338.149 7.85252 -189.111 -10.3684 -237.695 490.998
2710 2 -17.933 -58.6893 -8.01443 -465.703 -717.66 -274.789 11.4237 -168.786 -14.4224 -242.126 484.268
5200 1 -14.0308 -58.7577 -13.784 962.409 1395.61 918.397 -18.8414 -120.077 -100.792 -826.219 532.413
2702 1 -16.7598 -58.708 -9.07809 971.596 1393.2 879.137 16.3067 102.227 5.71623 -831.683 507.475
2703 1 -16.7565 -55.7219 -10.5911 908.977 1359.78 1020.35 132.267 65.8913 78.9192 -825.298 499.613
2706 2 -15.4022 -55.6335 -11.4238 -352.881 -583.026 -377.724 -50.1323 -232.152 21.1687 -253.563 467.369
2708 2 -16.8412 -57.2326 -9.87186 -550.936 473.103 -518.343 4.05831 -46.5887 -156.685 -247.299 1047.16
2712 2 -16.8113 -54.2973 -9.70329 -494.957 478.889 -383.057 40.0409 36.6877 203.345 -254.319 992.381
5197 1 -13.9989 -55.7736 -12.2411 917.903 1384.09 1140.28 -53.1555 -66.816 11.3007 -815.8 430.537
5198 1 -11.476 -58.8253 -8.67912 933.787 1372.21 979.817 -40.1694 -34.0923 20.4982 -830.02 428.645
5199 1 -11.5175 -55.79 -10.3029 880.114 1470.54 994.338 -35.3977 -182.849 -98.0046 -825.806 653.519
5201 2 -15.3809 -58.6966 -8.22476 -508.485 -651.134 -178.779 21.3463 215.86 16.5873 -248.15 563.973
5203 2 -13.9058 -57.294 -13.0364 -519.363 503.473 -441.016 -69.4049 -112.519 209.68 -251.083 1075.42
5204 2 -11.4307 -57.3033 -9.40143 -526.51 650.563 -398.89 11.0132 19.2121 -278.696 -239.009 1219.04
5205 2 -12.8404 -55.8386 -11.1362 -652.427 -640.301 -362.982 -5.07164 153.624 -56.392 -252.583 401.041
5206 2 -12.8452 -58.8116 -7.86625 -614.894 -738.429 -407.064 -144.704 -106.101 131.42 -247.889 482.215
5208 2 -11.3571 -54.3247 -9.58858 -546.597 443.733 -498.898 126.586 70.3193 112.094 -247.436 1018.03
5303 2 -13.8588 -54.3657 -13.1585 -521.153 447.304 -437.332 4.10582 19.3317 -210.193 -253.174 998.736
5212 1 -14.221 -58.6999 -7.10959 746.366 1652.35 945.655 20.3887 89.1729 18.9571 -822.059 840.329
5294 1 -11.3284 -52.7907 -8.82304 874.601 1377.89 918.769 63.4346 39.0302 -0.802087 -828.976 499.662
5202 2 -10.3247 -55.8684 -11.4414 -619.91 -663.139 -224.234 15.2155 -167.616 -39.4963 -240.297 514.969
5297 2 -15.3372 -52.7897 -8.11846 -560.289 -610.616 -263.593 71.9873 284.616 7.16964 -248.509 603.5
5308 1 -14.0337 -52.6943 -7.1256 947.169 1383.12 1174.44 -75.6704 18.6494 43.2261 -821.008 407.99
5296 1 -13.9598 -52.8733 -13.8756 888.272 1395.64 871.684 -54.337 43.7151 124.26 -827.483 571.86
2798 1 -16.6738 -52.8074 -8.94469 832.372 1591.7 975.287 -112.295 -50.8873 -72.513 -823.259 741.519
2531 2 -18.9978 -72.0928 -5.90505 -484.835 401.813 -597.195 -25.5542 -16.6724 -54.4794 -258.528 953.986
28 1 -24.4551 -70.6107 -7.1833 895.61 1093.73 1452.02 -39.3241 100.836 31.1879 -819.049 525.993
27486 2 -25.7154 -67.6591 -4.58614 -627.119 -750.136 -299.181 -46.5045 -64.2439 96.9966 -245.753 458.381
2524 1 -19.123 -70.6577 -6.68262 998.625 1206.73 1177.67 104.629 -108.65 0.404496 -825.104 326.132
25 1 -24.5266 -67.6761 -5.60179 876.775 1336.82 727.779 21.4849 121.799 -52.3973 -827.422 597.09
26 1 -21.9168 -70.5318 -2.20827 990.615 1513.46 721.288 35.4428 55.8373 136.038 -834.195 745.228
27 1 -21.9209 -67.5695 -3.75498 785.329 1364.44 977.967 71.4889 -41.9421 -88.5997 -828.418 552.336
30 2 -20.6043 -67.6113 -4.67093 -576.288 -725.559 -482.258 -0.660218 -116.92 3.54343 -245.297 293.614
31 2 -24.5445 -69.172 -6.30954 -476.985 400.476 -414.581 47.3068 63.0802 215.287 -255.366 936.361
32 2 -21.9037 -69.0169 -2.86409 -562.042 432.931 -427.317 -39.5561 9.85516 -140.718 -248.452 968.743
33 2 -23.1901 -67.5914 -4.67321 -625.739 -657.514 -295.528 -24.7611 147.271 32.5166 -248.586 436.599
34 2 -23.1667 -70.5659 -1.21816 -720.857 -757.721 -273.789 -4.07574 -58.2688 -16.6024 -243.377 478.301
36 2 -21.8494 -66.0818 -2.99002 -517.892 441.374 -497.858 -3.29522 -26.7504 160.159 -251.871 990.206
131 2 -24.6583 -66.2462 -6.40899 -527.411 364.623 -404.257 -98.5696 27.6214 -179.396 -254.3 910.505
2521 1 -19.142 -67.6476 -5.23816 733.847 1464.66 1020.34 -13.8884 68.1991 -8.0298 -826.142 649.246
2525 2 -20.6415 -70.6217 -1.23606 -488.382 -731.695 -175.712 -23.5673 181.224 -42.792 -246.336 582.002
2527 2 -18.9836 -69.1697 -5.95352 -487.126 533.895 -514.202 32.1522 31.5402 137.472 -253.066 1064.73
2627 2 -18.9717 -66.1597 -6.02647 -526.74 421.826 -498.079 -4.13629 15.3685 -157.676 -251.793 974.042
2536 1 -19.4615 -70.6934 -0.135403 1184.58 1485.05 977.693 -37.0061 -65.4647 54.2267 -825.842 470.147
2529 2 -18.1094 -67.6378 -3.99502 -420.637 -698.364 -254.11 3.22262 237.403 -15.1593 -242.754 566.492
35 2 -24.5289 -72.0012 -6.28452 -515.154 347.262 -407.123 -56.7182 102.007 -215.991 -259.367 918.199
2530 2 -17.9519 -70.7129 -0.907862 -58.6854 -680.521 -296.124 33.203 -303.021 -36.1847 -239.608 760.334
5022 2 -10.3844 -67.5966 -4.55349 -441.582 -645.747 -379.997 -39.9072 -175.253 -28.8949 -254.699 396.828
7517 2 -10.3229 -70.6525 -1.17574 -438.177 -604.95 -223.329 -57.1925 308.066 -100.29 -244.295 659.17
2522 1 -16.5431 -70.5481 -1.66979 991.596 1537.05 1006.62 33.9542 -7.20011 115.86 -828.956 577.437
2523 1 -16.6593 -67.6243 -3.25435 1051.38 1397.11 905.542 -39.3832 -55.3129 -38.5862 -827.499 457.734
2526 2 -15.5951 -67.6742 -4.47443 -436.29 -636.901 -106.797 40.5252 -228.68 -38.7679 -245.268 617.438
2528 2 -16.5333 -69.0955 -2.4547 -544.043 457.727 -443.651 -18.4044 -12.1123 -154.558 -253.167 993.062
2532 2 -16.551 -66.1366 -2.52794 -554.078 411.205 -446.81 -5.01209 5.00923 162.536 -253.086 958.717
5017 1 -14.3707 -67.6332 -5.58642 983.674 1201.5 1079.98 -5.6384 -79.017 -151.986 -829.331 351.953
5018 1 -11.6946 -70.5553 -2.10447 1143.73 1496.04 993.932 -40.8976 58.2745 2.55281 -823.88 463.205
5019 1 -11.7466 -67.5417 -3.73173 829.15 1537.51 953.354 66.5034 30.7139 -51.9218 -820.652 673.35
5023 2 -14.4168 -69.0211 -6.37803 -519.445 438.721 -522.159 35.2689 25.9332 120.157 -249.12 984.76
5024 2 -11.7945 -69.0042 -2.81044 -496.378 698.548 -348.119 -35.5248 -4.72368 -290.285 -246.83 1236.66
5025 2 -13.0229 -67.6636 -4.67653 -375.4 -675.509 -390.459 1.4508 168.531 35.5652 -247.56 418.07
5026 2 -12.8758 -70.6132 -0.975922 -605.851 -687.75 -61.8413 35.6292 -249.267 -64.3992 -241 741.525
5028 2 -11.7809 -66.0094 -2.97521 -492.082 459.826 -318.94 -7.34009 -26.38 301.796 -251.59 1023.12
5123 2 -14.3305 -66.1616 -6.40653 -424.427 526.997 -374.486 95.6814 -79.767 -280.361 -249.998 1068.9
5021 2 -15.3537 -70.5238 -0.59119 -390.841 -644.36 -158.438 -47.191 367.634 -26.1883 -241.107 769.027
125 2 -25.549 -64.8096 -0.639832 -548.233 -666.212 -277.316 13.8432 225.83 32.7331 -242.561 525.418
27582 2 -25.5282 -61.9112 -4.32475 -417.105 -596.899 -125.816 5.61313 -281.217 -17.1554 -245.735 638.572
2620 1 -19.0837 -64.7207 -6.80919 980.135 1255.36 1047.54 -30.6656 -29.4277 14.4887 -832.856 260.367
122 1 -21.8594 -64.611 -2.2267 1098.44 1424.13 1052.71 -82.1323 -29.6398 -64.8196 -827.557 398.169
127 2 -24.6646 -63.3328 -6.40192 -557.225 508.419 -332.165 102.545 77.058 324.924 -250.296 1145.65
128 2 -21.8802 -63.1063 -2.97196 -522.222 545.442 -588.186 17.2536 -5.73603 -105.715 -248.396 1117.68
130 2 -23.0624 -64.5872 -1.09733 -612.284 -639.334 -22.0726 -0.774953 -225.298 -4.66793 -241.901 719.299
2621 2 -20.5675 -64.6722 -1.19946 -532.11 -685.016 -104.094 -9.43688 308.928 -33.5458 -238.909 749.651
2623 2 -18.9667 -63.2553 -6.02263 -517.029 497.246 -455.774 26.4002 -10.4523 180.294 -250.478 1034.56
227 2 -24.7374 -60.4594 -6.46752 -554.001 481.099 -306.462 -58.0384 26.7155 -230.339 -256.24 1023.67
121 1 -24.4905 -61.8657 -5.58148 1162.18 1290.27 1139.67 -9.88668 72.6859 -45.5204 -822.029 205.32
123 1 -21.8501 -61.6343 -3.75751 829.258 1398.32 1006.8 -3.88501 -68.9197 8.87697 -834.335 518.51
126 2 -20.491 -61.6441 -4.61425 -604.852 -679.821 -370.692 -68.7876 -240.857 48.2557 -241.138 522.707
129 2 -23.0273 -61.8127 -4.81747 -465.723 -599.858 -308.583 43.2421 304.762 90.7755 -242.139 610.519
132 2 -22.0004 -60.128 -3.02382 -469.171 472.826 -419.409 -64.7732 -31.2956 220.472 -252.395 1002.15
2617 1 -19.0459 -61.7416 -5.28366 824.464 1434.57 971.546 36.1625 -7.85012 -41.7793 -831.052 559.89
2723 2 -18.8227 -60.2715 -6.0764 -531.712 482.536 -496.845 -16.0106 0.596798 -141.092 -249.654 1027.15
2625 2 -18.0134 -61.7116 -4.06936 -487.942 -685.421 -278.36 71.4514 188.605 110.182 -243.222 531.754
2626 2 -17.9981 -64.7757 -0.846508 -315.201 -677.591 -313.101 -51.711 -293.908 25.1581 -241.023 633.371
2618 1 -16.616 -64.7156 -1.67036 989.038 1478.18 1049.85 46.6916 65.4959 -77.6856 -832.179 500.723