ITEM: TIMESTEP
1700000
ITEM: NUMBER OF ATOMS
29952
ITEM: BOX BOUNDS pp pp pp
-2.5615833775063237e+01 3.5601128117061187e+01
-1.1796334836835270e+02 1.2794864270255145e+02
-2.1035324467156940e+01 3.4903177627851115e+01
ITEM: ATOMS id type x y z v_StrAtomXX v_StrAtomYY v_StrAtomZZ v_StrAtomXY v_StrAtomXZ v_StrAtomYZ c_PEAtom v_VMS
4901 2 -20.897 -69.0848 -15.141 -118.68 -560.293 -655.843 -125.95 92.3634 -160.145 -273.625 629.66
2400 2 -19.5705 -69.3153 -18.5341 52.0178 -432.659 -345.267 -235.84 432.282 -154.809 -275.898 999.778
4904 2 -18.4189 -69.3491 -15.9682 -245.504 -418.627 -15.4274 -434.873 190.251 33.457 -287.076 895.559
4900 1 -18.191 -69.3154 -17.6878 932.968 817.646 1210.11 100.303 -52.902 268.674 -773.141 614.17
4912 1 -19.4931 -69.0101 -14.5064 225.865 614.58 1374.35 359.366 -60.8156 26.1933 -756.912 1193.43
2316 2 -21.8379 -68.8349 -17.5286 -533.152 -567.585 -212.533 -82.5285 -181.34 103.378 -263.471 515.916
2494 2 -21.9479 -68.8748 -20.2717 94.6737 -486.105 -100.309 -178.187 576.77 -233.324 -264.947 1232.33
4896 2 -16.1426 -72.9963 -17.8197 -398.164 55.9398 -647.583 4.83364 63.4436 -90.8296 -163.425 646.976
7392 2 -11.9838 -72.4358 -15.1176 242.151 -496.56 -898.119 -101.926 144.94 46.1423 -283.135 1050.79
4982 1 -16.0432 -71.7078 -17.0659 1153.79 523.052 1500.45 137.57 -22.2139 -125.636 -820.852 917.752
7478 1 -10.6064 -71.6898 -15.0001 635.185 148.964 1768.19 -132.947 -231.856 115.801 -706.132 1524.97
4812 2 -16.9093 -71.6787 -15.5941 -337.629 -220.077 -594.983 -137.458 -259.415 105.082 -251.367 634.035
7396 1 -13.2242 -71.4885 -15.4318 556.717 311.947 2059.06 195.943 -215.852 43.9496 -744.172 1716.23
7481 2 -14.4361 -71.4983 -16.4734 306.554 -219.376 -698.928 -238.681 479.703 -198.973 -268.988 1318.64
7486 2 -11.9617 -70.3504 -15.9331 -3.50462 -74.5472 -942.736 -73.79 -25.4981 -275.205 -282.78 1032.46
7399 2 -13.9273 -70.7639 -14.0818 -359.469 -6.20908 -556.646 -238.658 -328.084 344.708 -265.76 1040.95
4990 2 -16.9994 -70.4273 -17.6331 157.771 -256.376 -685.212 -435.272 350.197 -163.81 -262.858 1244.92
4898 1 -17.3348 -70.3564 -14.8487 691.653 840.768 1469.81 375.15 36.3171 17.5121 -743.05 968.923
7397 2 -16.0281 -69.4894 -14.4805 130.289 -452.496 -625.903 239.825 126.151 -11.2126 -282.437 831.526
2486 1 -21.0443 -68.6776 -18.9234 976.065 1011.68 1075.4 10.3869 -37.5623 23.532 -787.629 117.539
2410 2 -23.6149 -68.5054 -15.4825 -8.88267 -507.207 -638.427 -120.039 -169.908 -123.832 -283.973 711.88
2402 1 -22.1269 -68.3768 -15.9901 533.076 860.197 1256.28 115.734 245.662 227.391 -784.396 877.39
2416 1 -25.0343 -68.3156 -14.7451 463.956 794.599 1116.35 -141.091 -176.322 -146.922 -755.201 732.787
2407 2 -23.6161 -66.9146 -20.118 -540.461 -578.328 -280.088 -34.5553 -162.635 87.6524 -264.511 430.197
4985 2 -20.799 -67.0272 -18.9475 -554.041 -67.5728 -638.498 35.1416 -18.4665 -44.2618 -259.525 543.576
2408 2 -21.7609 -66.8085 -15.9071 -408.781 -170.985 -702.234 -142.116 -32.5601 -48.648 -268.379 532.274
2401 1 -24.3808 -66.1542 -18.9866 729.17 913.85 791.877 73.4117 124.141 -53.8093 -805.75 312.322
2409 2 -23.4681 -65.9754 -17.6579 -514.284 -525.117 -326.062 -5.93276 104.214 -33.9081 -265.984 271.515
2403 1 -22.3164 -65.447 -16.6287 972.972 680.393 992.346 -1.79617 197.574 -102.842 -781.489 490.4
4897 1 -20.2493 -65.4882 -18.7542 586.48 873.959 749.976 162.998 220.93 355.013 -793.128 816.463
4905 2 -18.7059 -65.5373 -18.4158 -416.934 -545.054 -685.026 -1.3529 -10.5311 -76.99 -267.416 268.442
2406 2 -21.0741 -64.9595 -17.5297 -410.476 -664.722 -518.835 -18.5033 -112.162 -65.3926 -270.851 316.906
2507 2 -20.4264 -64.6176 -20.052 -589.335 -425.999 -403.085 33.3921 -117.894 -143.503 -274.017 371.17
11 2 -24.6502 -64.7561 -19.722 -418.489 -375.331 -235.372 140.602 -50.9878 -280.629 -264.017 575.2
2412 2 -22.8477 -64.2936 -15.6898 -541.246 -453.319 -615.841 -100.478 -48.9809 80.2534 -272.213 276.877
2506 2 -18.3758 -63.6337 -15.2358 -177.64 -470.254 -446.842 -25.3466 -193.623 55.1037 -269.554 450.363
2501 2 -20.9506 -63.2342 -14.3811 -287.115 -456.685 -680.902 -131.51 -27.1655 104.766 -268.106 451.746
2 1 -22.359 -62.9408 -15.0221 616.873 704.087 1041.99 91.7746 59.3798 -203.348 -802.556 557.811
2512 1 -19.4397 -63.6532 -13.9853 780.725 828.39 1100.04 163.367 -33.6395 -219.187 -801.495 562.675
2500 1 -19.8617 -63.3146 -20.8244 854.239 956.548 774.219 -106.662 131.286 -135.97 -779.067 407.872
7394 1 -11.9769 -68.7151 -15.7964 1133.34 250.175 1190.41 -69.5409 -55.4872 461.307 -766.159 1223.03
7402 2 -13.4638 -68.5417 -15.0374 205.451 -385.08 -865.184 54.0497 -81.7425 -0.927157 -264.137 944.222
7400 2 -12.2999 -67.8331 -17.034 -575.359 -223.062 -705.133 -142.343 358.319 -275.093 -271.941 927.181
4903 2 -17.6316 -67.8184 -17.8371 -438.809 40.0602 -690.793 126.472 -17.7514 -38.0381 -265.891 683.192
7401 2 -13.745 -66.7506 -19.1292 -333.606 -505.766 -195.086 92.967 309.47 -108.708 -280.055 649.131
7395 1 -12.4884 -66.6365 -18.1081 832.162 838.909 1041.36 -8.74688 -111.529 469.653 -779.456 861.2
7398 2 -11.1967 -66.7394 -19.1018 -348.01 -567.346 -352.29 -132.306 -237.021 -124.944 -268.672 561.312
7393 1 -14.9212 -66.1527 -20.0269 701.415 1008.51 893.197 -16.1994 44.2274 347.696 -772.866 664.475
4899 1 -17.3048 -66.1802 -17.9888 401.914 1059.74 986.795 -76.2294 182.846 107.394 -793.449 736.478
4902 2 -16.2137 -66.0487 -19.078 -399.667 -582.569 -639.485 31.9377 -72.8499 -129.437 -273.785 341.096
4908 2 -16.9368 -65.4455 -16.6115 -457.584 -278.412 -415.609 14.4796 -118.291 218.031 -265.606 459.96
7404 2 -12.485 -65.3003 -17.177 -361.936 -120.096 -158.53 75.932 64.9014 274.196 -282.059 553.31
5003 2 -14.3868 -64.7255 -20.5652 -365.368 -229.42 -449.487 186.274 -142.519 -212.828 -279.475 581.3
4997 2 -15.9016 -64.2079 -14.5583 -269.749 -535.646 -535.794 7.50241 135.58 -43.7988 -264.886 363.057
5002 2 -13.3449 -64.119 -14.8192 -376.052 -499.591 -173.825 -54.7311 -308.604 171.334 -261.11 681.103
7493 2 -10.8269 -64.1097 -15.3756 -117.764 -386.957 -441.039 24.6618 345.912 -36.2529 -266.765 674.301
4994 1 -12.2875 -64.0924 -16.0794 960.462 839.719 1233.67 -87.9683 5.96095 56.0294 -786.844 393.634
2498 1 -16.9338 -64.0697 -15.7255 681.106 1027.76 869.903 -75.962 -23.8843 -92.0552 -800.404 367.162
2504 2 -16.3638 -62.9332 -16.8007 -431.854 -295.235 -347.321 177.372 -138.472 -176.417 -260.894 509.447
9893 2 -10.5378 -68.5831 -15.0638 103.043 -476.468 -670.478 -311.638 157.966 -80.8625 -274.363 933.667
7 2 -24.2446 -62.2345 -20.52 -565.54 -539.972 -521.383 -30.4093 79.4862 24.8612 -261.544 158.294
2503 2 -19.9371 -62.068 -19.8766 -576.309 -546.625 -429.249 66.9625 -36.7204 86.8405 -270.155 241.378
8 2 -22.1452 -61.872 -16.2441 -539.95 -379.077 -383.433 -48.0581 -25.7741 -75.7681 -261.438 226.588
9 2 -23.0563 -60.957 -18.4925 -253.046 -485.084 -538.647 4.43724 7.91495 126.125 -272.17 342.212
6 2 -20.5246 -60.5448 -17.8001 -117.221 -488.654 -618.197 -85.1389 -125.629 82.4764 -256.893 540.705
1 1 -24.3003 -61.0255 -19.4978 938.4 754.8 902.513 184.379 15.6626 -93.48 -807.173 396.67
2497 1 -19.3908 -60.9699 -18.8468 797.329 836.008 1081.08 -68.3188 37.6998 -101.181 -810.773 346.43
3 1 -22.0821 -60.6502 -17.2812 881.503 877.169 765.011 101.008 54.738 -219.685 -808.786 444.371
107 2 -24.263 -59.6668 -20.3997 -451.929 -434.74 -405.329 -136.526 -4.46362 -250.027 -252.185 495.161
2603 2 -19.137 -59.6055 -19.6992 -560.203 -153.136 -489.334 -44.8021 81.0959 -171.314 -255.68 505.643
12 2 -22.3685 -59.312 -16.4883 -576.58 -423.194 -454.75 49.0887 51.8544 185.896 -263.351 372.357
98 1 -22.2431 -58.5599 -15.071 787.109 855.377 1045.74 15.3096 139.194 -73.6122 -815.464 359.137
2596 1 -19.5762 -58.2149 -20.437 1102.12 952.71 881.763 21.3936 28.2633 -188.878 -805.811 385.681
103 2 -24.6353 -57.1629 -20.039 -589.484 -439.783 -595.915 6.93768 125.65 86.8771 -252.814 305.885
104 2 -22.4925 -56.9664 -15.3061 -491.035 -164.492 -644.57 -135.142 156.906 -42.676 -255.242 560.76
2599 2 -20.1659 -57.2003 -19.3613 -539.473 -449.631 -496.811 -59.265 -49.2314 83.9986 -257.743 212.213
2597 2 -20.7786 -58.8269 -14.4101 -405.053 -454.269 -561.421 -25.1113 191.219 73.2625 -255.142 383.23
2602 2 -18.2602 -59.3143 -14.9285 -206.759 -477.2 -332.928 38.1029 -304.416 -44.601 -249.516 585.89
2505 2 -17.9894 -61.5351 -18.2698 -35.7227 -511.993 -621.016 -87.6546 67.0455 -4.41896 -259.054 572.047
5036 2 -11.7027 -62.3353 5.55071 -530.027 -612.055 -374.799 12.6799 -84.6039 -288.544 -214.256 561.504
2601 2 -18.3423 -56.3868 -17.6695 -47.2459 -592.617 -533.117 -34.734 16.4048 107.707 -256.468 554.752
5128 1 -14.769 -58.893 0.947763 979.345 1052.85 899.223 -55.2049 64.9662 -101.817 -854.416 265.736
5000 2 -12.5209 -62.5866 -16.7383 -477.305 -191.175 -531.715 -104.535 66.2962 -68.6449 -275.401 400.629
4999 2 -13.5317 -62.1758 -20.1851 -643.143 -444.555 -619.447 25.4541 79.4826 37.5803 -281.794 245.817
2499 1 -16.4936 -61.5524 -17.6107 694.415 947.916 1047.77 -46.2054 118.629 0.24239 -810.353 384.929
2502 2 -15.3816 -61.3134 -18.7068 -244.067 -525.455 -545.035 81.1913 -86.6439 -45.3739 -266.867 365.439
4995 1 -12.1538 -61.0936 -16.9642 710.728 729.834 845.982 -101.719 -58.8703 -133.341 -795.648 332.944
4993 1 -13.9399 -60.8819 -19.3734 976.37 704.607 691.636 87.0531 -80.1327 -85.8781 -788.68 376.393
5001 2 -12.945 -60.44 -18.2226 -483.091 -416.819 -462.506 -9.18235 13.0724 8.35514 -268.637 66.5319
2508 2 -16.5301 -60.3021 -16.5796 -526.798 -214.301 -441.266 -70.8596 -4.5741 207.972 -260.167 472.361
5004 2 -12.4182 -60.1451 -15.6852 -559.75 -339.059 -512.048 8.30234 42.5345 216.518 -257.378 432.119
5099 2 -14.1318 -59.6464 -20.362 -549.955 -251.551 -538.736 -8.02623 -77.3279 -154.702 -264.044 419.229
2594 1 -16.7487 -59.1099 -15.5071 1019.26 945.834 984.347 160.874 75.8084 -73.0028 -817.554 338.994
5090 1 -12.2384 -58.924 -14.6552 707.452 823.67 905.825 -28.828 56.6506 -126.35 -821.67 299.696
2600 2 -16.5424 -57.6639 -16.1869 -470.899 -211.665 -514.078 -7.83846 -14.8024 -74.5143 -261.66 312.663
5096 2 -12.4414 -57.5555 -15.4376 -531.966 -343.359 -514.51 79.5937 -38.2505 -4.44964 -260.323 236.726
5095 2 -13.8007 -57.1352 -20.0586 -587.852 -632.095 -484.881 -32.8236 36.7539 35.3686 -269.854 167.791
5093 2 -15.7688 -59.1822 -14.203 -418.777 -591.175 -233.749 -10.4302 124.641 161.599 -256.096 470.244
7589 2 -10.7188 -58.9335 -14.1683 -334.698 -576.529 -605.585 38.1317 -19.9715 102.419 -257.862 321.528
4998 2 -10.6204 -60.9005 -17.3479 -385.5 -460.297 -597.517 178.719 -77.3139 1.05478 -267.064 385.284
4906 2 -18.6774 -70.2001 -13.8951 113.422 -387.607 -892.633 -223.412 -213.548 62.2611 -263.166 1028.25
4913 2 -20.9712 -69.4392 -7.46992 -105.035 -734.803 -226.416 35.4079 301.664 55.8517 -233.232 788.05
7408 1 -14.4991 -69.2485 -13.9875 562.925 904.791 1468.82 139.448 79.865 -127.715 -782.735 868.464
7308 2 -10.3499 -70.6683 -13.8761 -576.095 94.7687 -894.838 223.063 78.5236 176.999 -272.839 1013.53
7409 2 -16.0324 -69.54 -7.55515 141.89 -776.619 -462.498 -49.4353 113.584 36.4512 -231.183 838.945
9905 2 -10.6251 -69.3692 -7.09279 -72.7394 -820.273 -429.857 37.6673 309.651 91.4792 -224.926 858.134
10 2 -23.5188 -62.5012 -14.0354 -171.095 -490.556 -538.682 59.9481 -190.698 -79.7604 -260.568 508.635
2422 2 -23.6609 -68.6465 -7.9102 136.042 -350.791 -616.544 15.4268 -150.436 -33.486 -258.472 713.427
2414 1 -22.0544 -68.4435 -8.19961 1049.44 1183.91 907.671 34.6761 -166.552 -53.782 -810.696 390.829
2328 2 -21.8135 -67.9239 -9.73161 -550.129 -362.593 -209.95 -57.9567 -173.588 -475.717 -243.433 930.856
4915 2 -19.2791 -67.721 -13.6428 -497.91 -397.68 -407.198 34.4687 -124.091 246.138 -274.398 490.607
2419 2 -24.8889 -67.2914 -13.603 -490.984 -304.119 -312.937 -10.2844 24.3915 215.433 -273.878 417.953
2421 2 -23.2759 -66.5644 -11.5854 -541.832 -502.028 -334.825 -61.2284 250.339 15.3469 -252.087 485.962
2418 2 -20.805 -66.5355 -11.81 -470.742 -554.511 -397.225 -39.5757 -216.965 124.284 -246.512 459.173
2415 1 -21.9489 -66.5986 -10.6969 833.473 1179.24 964.476 15.4699 177.068 45.2214 -834.949 438.556
2413 1 -24.6548 -66.1931 -12.3451 979.775 805.556 1106.94 64.9085 -31.4647 -15.4709 -810.81 291.554
4909 1 -19.3574 -66.5025 -12.5804 935.899 715.17 855.158 -113.277 -27.1378 -138.119 -813.877 367.904
2424 2 -21.8643 -65.4001 -9.59263 -523.572 -598.442 -227.404 23.8373 -4.53789 301.191 -240.326 624.028
2519 2 -19.4009 -65.1264 -13.3475 -512.436 -457.605 -547.737 -115.27 97.0618 -2.75873 -264.936 272.645
23 2 -24.5549 -64.7763 -13.0036 -511.646 -466.862 -656.601 111.181 -91.3314 -18.6601 -262.542 304.404
22 2 -23.4712 -64.8418 -7.62808 -330.107 -436.796 -419.207 102.752 -259.572 -100.117 -243.975 523.156
14 1 -22.0072 -64.455 -8.26606 1120 1007.36 1003.06 143.484 66.8891 -93.0167 -848.962 338.131
16 1 -24.8612 -63.2649 -13.435 952.326 805.011 927.643 143.782 103.061 -224.283 -811.843 513.292
20 2 -21.7754 -63.0163 -8.91493 -501.942 -320.056 -483.158 64.3072 -165.424 -202.077 -248.71 497.018
4917 2 -18.2336 -66.6504 -11.4842 -565.025 -588.603 -406.084 86.5423 42.3148 133.202 -258.927 332.617
2513 2 -20.9226 -64.5632 -7.09433 -503.457 -862.739 -370.286 -64.5883 37.7333 50.6141 -239.923 468.119
4918 2 -18.541 -68.2373 -7.25387 174.305 -367.449 -662.116 -54.8251 -325.038 23.9392 -258.297 931.477
2428 1 -25.1527 -68.6145 -7.30313 802.076 1032.74 978.23 56.2614 -48.6022 62.6582 -827.953 268.263
2420 2 -21.1831 -67.3 -7.43241 -12.6373 -922.454 -536.635 23.652 187.471 -87.8884 -225.795 869.416
7414 2 -13.2919 -68.6421 -7.66446 7.14128 -305.963 -791.539 73.1054 -54.0396 -3.5126 -264.311 714.622
7406 1 -11.7336 -68.4351 -7.84778 623.859 1077.63 1075.43 -12.65 -98.1802 16.7341 -813.895 484.929
4910 1 -17.0863 -68.3987 -7.99572 817.865 1036.14 994.634 17.0268 22.7003 182.769 -814.944 378.07
7411 2 -14.5114 -68.192 -12.7 -505.504 124.668 -410.893 -84.9088 21.8273 474.902 -254.793 1022.79
4824 2 -17.4106 -68.0788 -9.50943 -697.11 -145.525 -486.268 1.09216 -72.2594 -297.302 -236.21 716.406
7320 2 -11.4303 -68.0016 -9.345 -673.34 -161.462 -542.406 -25.2686 -165.811 -309.847 -243.672 764.56
4916 2 -15.8155 -67.4286 -7.62816 -51.243 -963.275 -657.652 -87.1501 -76.2668 -4.60196 -228.578 828.715
5008 1 -14.5048 -64.1559 -13.6875 987.594 969.429 898.57 -92.7818 92.2599 -147.875 -803.192 351.568
7405 1 -14.3625 -66.7816 -11.8481 809.355 882.347 1013.15 121.75 -20.914 -117.324 -822.948 345.052
7413 2 -13.0398 -66.844 -10.9813 -210.351 -533.433 -449.435 100.218 155.476 192.856 -251.173 546.378
7407 1 -11.5292 -66.6386 -10.2884 1050.09 1210.65 907.827 123.174 227.513 -44.3628 -819.461 524.943
4914 2 -15.7042 -66.6726 -10.9675 -347.499 -543.727 -471.092 -90.9382 -182.581 -3.64328 -256.486 392.919
4911 1 -17.1612 -66.5958 -10.3051 1021.97 1213.5 703.862 108.952 44.6458 76.7896 -822.337 508.022
5015 2 -14.2495 -65.5468 -12.8464 -464.903 -148.426 -533.3 -68.834 25.0144 -35.1819 -263.118 382.475
4920 2 -17.3805 -65.4703 -9.20504 -610.434 -350.134 -203.203 25.7634 -111.977 237.426 -254.926 579.924
7416 2 -11.3318 -65.2941 -9.42604 -433.527 -252.358 -392.336 66.298 17.6808 275.024 -257.782 517.779
5014 2 -13.1445 -64.3653 -7.67393 -401.748 -481.789 -414.291 21.2482 -241.803 46.3193 -243.881 434.461
2510 1 -17.2768 -64.4001 -7.9365 1067.13 1033.27 929.688 -62.5383 273.135 -67.2623 -837.842 514.292
5009 2 -15.7617 -64.3917 -7.3732 -248.099 -665.542 -507.274 -39.3704 89.4136 26.4018 -240.006 404.926
5006 1 -11.6569 -64.1615 -8.30157 1053.76 889.906 1066.89 -86.7677 -20.7262 -113.537 -845.157 302.851
5011 2 -14.5973 -62.8789 -12.7453 -532.724 -231.543 -384.518 -30.6883 -178.042 184.722 -268.408 518.003
5012 2 -11.669 -62.7606 -9.07302 -624.755 -350.37 -550.369 -7.49634 -58.2281 -58.3758 -245.945 284.558
2516 2 -17.5632 -62.925 -8.55165 -543.409 -201.037 -395.689 64.1588 -64.5119 -156.993 -253.487 432.712
7505 2 -10.6388 -64.1027 -7.05909 -561.524 -728.048 -358.747 -18.0858 178.868 85.6125 -233.431 470.709
7410 2 -10.467 -66.6834 -11.4788 -376.697 -609.592 -477.792 39.4784 -82.2403 16.4957 -256.222 258.26
7420 1 -14.7784 -68.5665 -7.05353 633.491 1095.85 1138.46 45.2823 73.4278 -59.665 -816.515 517.975
7412 2 -10.8685 -67.2427 -7.06864 -47.2887 -898.157 -627.359 162.174 200.767 37.8078 -223.918 878.07
2515 2 -19.0071 -62.586 -12.8766 -500.491 -394.8 -379.388 -125.162 -113.634 260.877 -255.131 550.401
106 2 -23.3163 -59.0057 -14.0291 -423.79 -704.658 -502.176 -69.9459 -109.51 133.254 -253.842 408.583
18 2 -21.0126 -61.8862 -11.1868 -258.392 -516.781 -267.828 20.0004 -319.747 69.8682 -256.483 622.073
21 2 -23.5895 -61.8242 -10.3818 -109.795 -611.245 -495.51 -105.504 58.9567 78.8325 -249.665 518.918
2517 2 -18.5646 -61.4314 -10.574 -356.268 -615.448 -509.922 -82.4441 115.347 25.4175 -250.378 336.458
15 1 -22.0045 -61.7366 -9.90438 1004 1061.21 1088.74 5.46124 165.504 -106.085 -822.241 348.759
2509 1 -19.5567 -61.4685 -11.7927 998.912 1005.19 806.112 60.0572 -84.9481 -127.337 -819.099 345.737
13 1 -24.9517 -61.3198 -11.0695 875.916 1173.97 794.603 147.555 106.841 -197.738 -819.899 580.126
2615 2 -19.4775 -60.0827 -12.5908 -482.753 -412.076 -467.489 139.409 -142.479 -46.6903 -258.504 360.409
24 2 -21.8493 -60.2399 -9.34358 -530.487 -93.3747 -562.062 -46.398 -63.5175 57.8371 -257.555 484.214
119 2 -24.5651 -59.9519 -11.9097 -480.103 -145.498 -243.35 44.4599 11.9658 -203.803 -255.748 468.786
112 1 -24.672 -58.8617 -13.1369 1037.23 904.946 975.144 -17.9264 139.054 -165.673 -817.746 393.007
2608 1 -19.3577 -58.9694 -13.7276 790.517 695.853 1201.39 7.41645 -88.6401 -64.2608 -825.333 502.786
124 1 -24.6316 -58.6971 -7.25558 1114.84 984.96 733.582 -43.8986 224.443 -228.106 -830.621 652.466
110 1 -22.0601 -58.6701 -8.94545 767.735 880.529 1017.48 4.00686 149.903 -10.1116 -824.235 338.663
2609 2 -21.0681 -58.3987 -7.66614 -290.356 -572.388 -324.864 -12.7602 179.275 43.3994 -250.519 416.604
118 2 -23.5171 -58.5255 -8.36582 -540.275 -554.968 -580.673 40.1176 -148.873 6.32899 -255.767 269.614
2614 2 -18.3359 -58.5231 -7.39003 -33.9704 -585.569 -417.003 -28.4975 -199.406 142.188 -251.051 649.671
116 2 -21.728 -57.6336 -10.087 -490.33 -170.197 -498.375 -8.33747 -19.9421 -51.9906 -260.785 338.579
115 2 -24.7253 -57.3698 -12.6149 -571.147 -362.349 -572.6 -26.2267 19.6794 62.3962 -257.724 242.502
2611 2 -18.8957 -57.5712 -13.1236 -495.053 -289.109 -512.127 -23.3884 -16.3977 175.508 -255.044 375.603
131 2 -24.8182 -60.2882 -6.87928 -679.911 -96.7547 -506.705 40.3978 -205.54 -122.632 -251.434 667.696
5113 1 -14.3542 -56.5327 -5.07332 979.489 1070.31 661.587 -20.6275 153.733 -167.207 -840.612 542.437
2514 2 -16.0682 -62.1538 -10.5513 -313.382 -579.872 -400.124 -33.5246 -208.868 248.312 -261.64 612.087
5010 2 -10.7976 -61.8389 -11.4389 -332.531 -528.861 -359.837 5.53129 -206.069 30.5196 -255.739 405.227
5013 2 -13.3699 -61.9338 -10.7272 -246.357 -455.629 -675.942 92.7949 2.07105 113.232 -259.454 450.276
5005 1 -14.7884 -61.889 -11.4744 924.926 965.966 994.923 -192.499 85.6695 -247.818 -806.946 566.69
2511 1 -17.2702 -61.6979 -9.57838 920.978 1013.92 1078.69 -56.741 113.976 -201.201 -819.985 434.659
5007 1 -11.8763 -61.6515 -10.2166 818.578 798.444 1159.02 49.0409 -50.5531 -187.497 -824.321 493.464
5111 2 -15.0929 -60.3295 -12.0021 -489.556 96.7737 -567.847 -60.4982 40.715 -25.7244 -258.931 643.237
5016 2 -11.6787 -60.1529 -9.71281 -453.363 -268.634 -588.821 74.4467 26.0152 135.187 -257.692 388.563
2520 2 -17.0416 -60.2665 -8.88082 -498.144 -130.182 -545.683 -48.5827 -117.924 190.62 -257.265 559.423
5098 2 -13.2944 -59.0749 -13.4881 -362.122 -583.136 -520.644 77.823 -128.772 8.70044 -255.164 327.237
5104 1 -14.8197 -59.0392 -12.9149 981.057 1108.32 928.646 25.4877 6.87833 -72.8877 -815.763 208.902
2606 1 -17.1127 -58.7281 -8.37583 851.225 949.504 1123.73 7.91441 141.911 -108.666 -833.227 391.361
5116 1 -14.1618 -58.7398 -7.23875 858.382 995.362 830.748 -102.738 102.235 -294.503 -835.908 588.668
5102 1 -11.8306 -58.6096 -9.24159 724.429 833.509 875.169 -168.065 193.373 -76.1525 -821.885 482.175
5110 2 -13.157 -58.4604 -8.44537 -752.871 -534.233 -500.952 103.937 -9.18848 47.9017 -254.472 309.407
5105 2 -15.6537 -58.3596 -7.72273 -252.726 -543.856 -622.835 30.8813 41.0122 108.793 -240.955 396.739
5108 2 -11.8179 -57.5799 -10.4446 -503.454 -327.94 -594.829 103.573 -12.9955 27.4976 -258.48 300.249
5107 2 -14.9291 -57.4621 -12.356 -519.559 110.515 -564.155 46.7008 20.3 81.957 -253.891 674.545
2612 2 -17.2563 -57.6651 -9.59405 -513.18 -200.553 -498.357 63.8841 -52.3083 -138.167 -249.117 413.575
7601 2 -10.6619 -58.2844 -8.16835 -461.185 -583.471 -336.791 78.8517 106.745 96.6194 -254.485 355.643
7332 2 -12.1254 -69.892 -1.92099 -557.962 -170.71 -196.943 98.966 24.8584 -92.2533 -122.025 444.142
7418 1 -12.3805 -69.1233 -0.585895 1449.26 1188.75 1233.74 -107.052 -162.583 317.941 -930.187 689.283
7426 2 -14.1001 -69.1214 -0.327957 140.348 -623.671 -690.469 -163.548 129.651 -148.506 -197.6 914.361
2518 2 -18.3586 -64.7666 -6.84996 -432.876 -492.265 -477.167 -4.46916 -238.37 95.2872 -247.692 447.904
4924 1 -20.0558 -68.3233 -6.68495 963.435 1173.1 1029.15 -84.3999 6.16133 -152.54 -809.489 354.666
2431 2 -24.8951 -68.2997 -5.72635 -738.955 -139.08 -150.416 96.0162 13.579 417.922 -238.224 951.507
4927 2 -20.0385 -68.1117 -5.09089 -649.302 -370.006 -133.105 47.039 27.8314 230.696 -249.561 607.386
2432 2 -23.1593 -67.4566 -1.02143 -546.818 -76.9013 55.6526 221.743 -443.958 -434.381 -262.627 1267.1
2433 2 -23.7068 -67.1388 -3.53472 -409.897 -564.246 -116.682 -1.3877 194.389 132.513 -241.116 566.659
2425 1 -24.9424 -67.0616 -4.61339 1356.61 1423 713.521 98.5341 203.039 -165.9 -836.499 834.288
4929 2 -18.5153 -66.9885 -3.05872 -145.679 -542.444 -141.427 -70.6508 442.642 15.721 -225.928 873.292
2430 2 -21.1198 -67.0347 -2.95552 -247.048 -598.876 -231.841 -25.1546 -488.256 -64.43 -231.877 926.767
4921 1 -19.878 -66.941 -3.98566 1260.5 1169.88 855.985 88.3271 266.064 -150.446 -854.013 662.468
2427 1 -22.6559 -66.6462 -2.38048 1510.51 976.138 920.65 39.7842 196.845 91.0056 -838.041 681.263
35 2 -24.7465 -65.6136 -5.41451 -638.967 -23.9895 -217.652 68.9262 -196.446 -249.11 -249.676 782.814
2531 2 -19.8498 -65.551 -4.84426 -623.138 -179.041 -335.968 28.4282 -128.954 -137.491 -246.912 511.058
2436 2 -22.6287 -65.06 -2.27261 -719.629 -344.236 -508.042 146.812 -81.2709 -102.794 -251.011 471.631
28 1 -24.6767 -64.516 -6.6032 1299.12 900.871 995.76 99.4074 220.133 61.8187 -844.784 562.409
2524 1 -19.7426 -64.4573 -6.03317 1120.98 995.126 962.154 -89.0898 184.203 9.90876 -844.263 383.372
26 1 -22.5852 -63.4807 -2.06781 1139.89 763.997 833.987 -143.308 257.396 108.697 -837.185 644.75
2536 1 -19.7929 -63.3739 -0.731338 871.905 1224.54 676.241 -14.5638 64.8046 -29.2321 -850.703 497.425
2530 2 -18.3922 -63.2599 -1.46905 -516.863 -643.447 -559.86 18.7111 -49.4305 17.9156 -242.385 147.557
2525 2 -21.0869 -63.0646 -1.60341 -268.274 -695.769 -559.553 40.3519 -7.50943 82.7674 -244.111 410.707
31 2 -24.3571 -62.9922 -6.14483 -590.873 -15.1293 -546.144 -49.0709 -68.842 -48.1089 -249.456 579.753
34 2 -23.7614 -63.1885 -1.05427 -389.093 -696.486 -704.736 138.019 -60.3512 3.17231 -247.193 406.448
2527 2 -19.7269 -62.9142 -5.50284 -561.52 -188.53 -531.691 14.4178 -123.85 11.6575 -248.337 419.444
2543 2 -20.0481 -64.9097 -0.212019 -612.445 -429.385 -291.303 83.7084 -89.2715 -207.281 -233.929 501.677
40 1 -24.9525 -63.6609 -0.112842 1164.37 1095.72 787.385 -114.618 104.337 102.477 -823.1 473.841
4928 2 -16.3716 -67.7055 -1.13027 -338.237 -438.506 -15.5808 -171.256 254.516 -258.729 -227.92 793.509
7423 2 -14.6068 -68.1276 -5.55068 -719.126 -425.164 -514.117 112.658 -77.7459 377.325 -230.68 742.635
7517 2 -10.6007 -63.5153 -0.766753 -303.938 -608.135 -574.223 -123.175 127.772 39.998 -229.999 427.391
7424 2 -12.3621 -67.4716 -1.08503 -637.193 -419.337 -335.586 -35.6746 65.2424 -399.607 -198.324 753.9
4926 2 -15.9916 -66.9073 -3.71994 -386.229 -660.314 -202.721 222.557 -280.601 -176.267 -228.818 798.192
4923 1 -16.9532 -66.8298 -2.39444 1445.44 814.743 1176.9 -80.7699 273.454 -97.8045 -868.356 757.05
7425 2 -13.303 -66.8658 -3.57065 -282.501 -763.653 -308.369 33.9352 143.924 121.467 -224.968 574.099
7417 1 -14.5828 -66.8341 -4.54447 1382.52 1193.81 680.118 -59.1284 114.355 -205.736 -866.224 757.055
7419 1 -12.2172 -66.5378 -2.38615 917.122 1314.06 1150.99 -118.952 26.6568 27.7394 -894.085 407.814
7422 2 -10.7669 -66.5721 -3.03578 -528.686 -710.829 -426.192 53.8354 -134.966 112.831 -229.152 404.826
5027 2 -14.323 -65.6146 -5.55216 -597.946 -530.453 -390.331 90.0098 -265.238 -32.2049 -243.418 521.648
4932 2 -16.844 -65.3187 -2.01319 -662.21 -350.002 -636.675 48.7479 -90.0614 -83.072 -231.984 377.252
7428 2 -12.4451 -65.0013 -1.8948 -545.346 -530.444 -609.963 78.0166 89.268 96.0645 -223.828 274.248
5020 1 -14.3373 -64.4117 -6.59262 1037.63 973.5 1112.13 11.1643 138.055 -31.6771 -851.704 273.868
2522 1 -16.9247 -63.6826 -1.88893 990.922 1133.76 879.227 -89.8314 210.726 59.9077 -859.672 465.86
5018 1 -11.9919 -63.5252 -1.55004 941.274 1088.33 964.048 79.5761 -62.4157 -66.0736 -878.673 250.154
5021 2 -15.8127 -63.1859 -0.806608 -395.16 -584.634 -349.814 164.636 141.809 156.361 -234.86 511.409
2528 2 -16.618 -62.8328 -3.18948 -713.904 -373.469 -610.025 82.3028 -53.7815 -101.527 -234.367 388.902
5026 2 -13.2249 -62.8672 -0.736125 -455.424 -848.995 -682.101 -131.632 30.196 124.484 -222.099 467.196
5023 2 -14.3069 -62.9269 -5.86818 -649.07 -110.588 -541.547 -46.9194 -60.4219 71.893 -240.078 526.011
5024 2 -11.8021 -62.5341 -2.79739 -693.759 -448.248 -591.194 -10.008 60.3373 -65.7019 -226.69 264.172
19 2 -25.3096 -62.5001 -12.1412 -666.749 -394.685 -408.641 -23.6498 -21.9456 192.016 -256.025 429.127
32 2 -22.9451 -62.5747 -3.34544 -751.06 -334.896 -587.835 -24.4178 -15.591 -72.2609 -241.595 387.414
2620 1 -19.8451 -58.6489 -6.65296 1322.06 1165.37 794.848 -34.3373 -49.6262 -226.723 -829.777 620.508
25 1 -24.5171 -61.4074 -5.78887 1060.79 1171.2 765.733 12.329 -30.3707 -83.0976 -829.977 394.668
2521 1 -19.6444 -61.3916 -5.03869 918.956 970.601 1016.37 -46.2112 165.051 -79.8089 -851.442 338.181
27 1 -22.4452 -61.1029 -3.75768 1145.48 1044.44 683.829 -10.6532 60.3098 21.8953 -838.89 435.175
30 2 -20.8458 -61.1544 -3.98505 -404.194 -663.903 -592.333 -5.39559 -210.523 104.116 -233.07 468.563
33 2 -23.1194 -60.8671 -5.18319 -583.65 -752.219 -405.123 69.5326 36.0174 194.233 -239.017 471.123
2627 2 -19.8483 -60.2104 -6.09044 -645.081 -65.7488 -538.339 -56.5948 4.96556 -83.4952 -244.074 561.941
36 2 -22.734 -60.028 -2.60276 -679.546 -299.517 -172.622 79.821 66.7857 205.935 -255.786 607.018
2621 2 -21.0536 -59.0696 -0.658424 -773.305 -525.698 -621.412 141.151 23.5368 124.07 -242.622 392.917
122 1 -22.529 -59.0858 -1.29674 1031.87 967.632 915.301 -143.139 205.763 -27.0674 -838.093 448.227
127 2 -24.2029 -57.8855 -6.00269 -720.787 -361.805 -545.818 22.4156 -45.0191 126.015 -244.547 389.741
2623 2 -19.967 -57.634 -5.4119 -656.028 -465.587 -364.524 -13.9179 -107.837 178.512 -250.178 443.616
128 2 -22.8969 -57.5376 -1.69977 -633.99 -286.631 -604.981 -14.4087 21.9302 41.9957 -246.78 344.644
126 2 -20.9062 -56.7704 -3.12529 -187.754 -543.94 -342.017 49.3194 -232.735 15.5711 -248.023 515.985
2626 2 -18.4568 -59.3631 -0.849442 -322.858 -552.553 -611.615 66.4141 -148.312 -29.9636 -235.725 389.525
2529 2 -18.223 -61.1706 -4.29811 -461.803 -645.297 -439.502 93.7489 65.1119 112.418 -240.015 339.497
27462 2 -25.7513 -61.1455 -18.79 -347.944 -469.882 -581.541 -40.9007 15.7026 -59.4137 -263.549 239.375
5035 2 -14.5018 -62.1445 1.44003 -606.903 -425.81 -264.19 37.7531 11.0382 225.353 -225.868 495.154
2617 1 -19.7585 -56.5483 -4.27553 857.219 1292.8 837.486 -44.3543 -23.0653 -318.389 -835.889 714.372
2632 1 -19.698 -58.9481 0.0688106 685.562 798.414 872.064 -86.5231 -45.7358 71.8589 -864.101 265.888
2622 2 -15.8086 -56.8141 -4.47004 -519.254 -643.321 -373.12 43.2229 -160.838 -19.0728 -244.109 373.07
5132 2 -11.6384 -57.2922 3.83718 -516.891 -523.664 -252.271 -90.9613 46.071 -247.037 -239.628 534.914
5022 2 -10.458 -60.7068 -3.96805 -549.575 -642.727 -448.208 -90.5893 -80.7321 153.2 -238.371 378.124
5123 2 -14.2007 -60.2608 -6.72309 -636.768 -259.286 -524.144 156.666 -55.5267 -46.8011 -247.505 449.573
2523 1 -16.7588 -61.2927 -3.68128 1004.23 1097.58 743.327 -68.4206 106.78 -158.783 -852.176 474.368
5017 1 -14.287 -61.3589 -5.55181 1115.34 1106.61 736.417 -126.495 114.173 -168.105 -846.597 558.78
2526 2 -15.623 -60.9646 -4.76308 -395.11 -658.509 -461.204 10.4546 -68.6395 114.569 -243.292 331.931
5019 1 -11.8989 -61.0679 -3.4475 917.389 1131.42 813.739 -65.775 105.859 -90.1832 -860.951 386.953
5025 2 -12.9234 -61.1088 -4.68797 -291.27 -690.434 -451.008 73.3245 64.3943 112.762 -237.954 433.361
2532 2 -16.5909 -60.3474 -2.41915 -650.543 -420.744 -327.436 30.3722 -1.15448 244.431 -243.227 514.749
5028 2 -12.4357 -60.0693 -2.29952 -550.213 -399.687 -193.827 -23.116 -82.905 294.747 -238.377 615.527
5114 1 -12.3402 -59.0104 -1.02993 938.733 1269 869.342 -119.285 180.954 42.72 -855.055 532.166
2618 1 -16.8925 -59.1964 -1.29425 1067.16 1257.26 893.659 -8.69348 -60.1333 -129.116 -840.383 400.392
5119 2 -13.931 -57.748 -6.02256 -695.256 -484.116 -512.088 -37.26 -132.499 173.367 -245.311 431.808
2624 2 -16.623 -57.7574 -2.06491 -529.359 -322.012 -380.366 89.2594 -133.27 -160.062 -251.004 433.985
5120 2 -12.3896 -57.509 -1.57422 -523.577 -414.243 -399.981 41.9045 53.99 -74.8015 -242.291 210.986
5117 2 -16.0356 -59.278 0.0449686 -582.833 -581.142 -228.378 14.0993 127.48 43.9844 -248.985 424.495
5034 2 -10.5736 -61.863 3.19511 -357.525 -751.732 -406.589 -36.8628 -152.866 -74.3121 -230.425 478.761
7613 2 -10.8743 -59.3068 -0.32815 -101.472 -555.863 -410.094 -2.2443 238.143 1.70792 -234.798 575.885
5118 2 -10.7997 -56.7935 -3.55304 -536.65 -677.379 -433.504 -23.3268 -40.1907 145.126 -251.518 338.56
5029 1 -14.5954 -61.2991 2.80306 812.361 1254.79 820.031 -58.3757 -8.12894 5.25589 -877.815 450.462
4930 2 -19.162 -69.2199 1.78715 2.47682 -528.232 -648.04 17.3419 196.963 72.7791 -227.816 701.972
2434 2 -24.8012 -69.3994 0.453807 -48.4135 -400.938 -413.961 59.8418 -469.292 -167.18 -254.273 940.387