ITEM: TIMESTEP
1200000
ITEM: NUMBER OF ATOMS
29952
ITEM: BOX BOUNDS pp pp pp
-2.5615833775063237e+01 3.5601128117061187e+01
-1.0134767329599433e+02 1.1133296763019307e+02
-2.1035324467156940e+01 3.4903177627851115e+01
ITEM: ATOMS id type x y z v_StrAtomXX v_StrAtomYY v_StrAtomZZ v_StrAtomXY v_StrAtomXZ v_StrAtomYZ c_PEAtom v_VMS
4898 1 -17.2019 -68.907 -14.6735 197.085 901.711 1319.36 266.26 49.739 67.8956 -740.927 1095.06
4990 2 -16.8796 -69.1072 -17.5205 -28.2421 -317.397 -734.937 -359.84 226.341 -128.607 -263.734 985.113
7486 2 -11.9193 -69.1357 -15.9181 107.83 -319.975 -1225.47 -102.59 120.613 71.5754 -316.299 1216.92
7396 1 -13.2472 -70.1522 -15.5338 406.878 310.298 1819.73 -21.2331 -19.151 9.92012 -735.345 1464.48
7481 2 -14.5005 -70.3015 -16.4802 149.14 -196.357 -924.406 -106.322 348.347 -182.409 -272.093 1182.68
4812 2 -16.7676 -70.2476 -15.4233 -523.261 -178.017 -703.137 -167.885 -99.1342 174.086 -255.815 646.998
7478 1 -10.7071 -70.2168 -15.207 481.276 153.444 1891.32 10.0657 -192.92 40.197 -717.176 1635.47
4982 1 -16.103 -70.4762 -16.9165 822.346 578.77 1624.8 197.026 -16.1018 -14.1943 -824.305 1008.25
7392 2 -11.9998 -71.159 -15.177 319.095 -419.643 -865.378 -112.067 82.0484 10.4724 -269.367 1063.91
4896 2 -16.3722 -71.7553 -17.7233 -331.335 189.418 -522.083 -20.6008 34.2265 43.335 -165.245 646.005
7399 2 -13.8586 -69.3196 -14.2946 -561.166 -211.431 -704.186 -209.584 -219.717 221.012 -273.777 784.813
2400 2 -19.4463 -68.2073 -18.4042 303.845 -404.872 -164.939 -111.46 617.358 -87.8247 -267.934 1262.38
4900 1 -18.0677 -68.0427 -17.5023 968.18 499.29 1251.39 174.815 -63.5067 437.569 -761.21 1054.06
4904 2 -18.3859 -68.1048 -15.7711 -51.168 -562.385 -115.832 -334.316 83.8978 -26.3331 -301.647 768.742
4901 2 -20.935 -68.0752 -15.0346 -36.2854 -505.759 -510.066 -123.733 223.798 -219.429 -284.898 750.386
4912 1 -19.515 -67.9383 -14.3942 279.011 755.343 1278.71 245.191 -12.6697 128.704 -743.156 990.269
2316 2 -21.7894 -67.8559 -17.5334 -537.593 -485.501 -96.2259 -52.4433 -181.205 -16.304 -274.352 531.113
2494 2 -21.959 -67.8759 -20.2158 -22.532 -397.974 -166.247 -117.555 536.671 -186.19 -274.533 1056.96
2410 2 -23.64 -67.5924 -15.3433 68.377 -552.986 -613.545 -263.976 -200.365 -156.022 -282.445 910.991
2486 1 -21.0283 -67.6265 -18.9056 1224.01 784.228 910.138 -48.908 46.8391 -0.362567 -769.889 409.443
2402 1 -22.1458 -67.4708 -15.958 570.322 892.306 1403.92 107.662 42.0748 328.34 -769.147 945.334
2416 1 -25.068 -67.2417 -14.7621 359.446 974.61 1180.39 -167.912 -58.0734 98.0367 -750.198 819.083
4985 2 -20.6481 -66.049 -18.9861 -444.767 -215.716 -542.639 179.133 28.1621 -7.19321 -279.587 428.091
2407 2 -23.7076 -66.0347 -20.016 -457.454 -677.522 -399.494 -90.204 -121.422 -5.17633 -270.916 365.055
2408 2 -21.9433 -65.8537 -15.9248 -410.372 -254.075 -750.986 -91.1965 -50.6061 -36.691 -272.383 479.954
2401 1 -24.4131 -65.0749 -18.9913 590.473 892.054 648.84 158.796 117.712 114.682 -796.423 483.144
2409 2 -23.5242 -64.9108 -17.6673 -655.817 -525.802 -471.651 -108.909 -62.6083 -42.0242 -270.912 281.989
4897 1 -20.1763 -64.5133 -18.7046 708.474 832.52 1004.76 8.63367 75.6447 450.245 -772.112 831.847
2403 1 -22.4005 -64.4917 -16.6134 691.187 534.067 1114.34 45.4432 85.3842 -58.0163 -783.08 555.329
4905 2 -18.6638 -64.3977 -18.1734 -369.891 -448.296 -679.223 137.405 12.4476 -75.7503 -280.931 389.744
2406 2 -21.2015 -63.9699 -17.5493 -370.82 -434.393 -404.508 -126.223 -211.373 11.498 -271.246 430.423
11 2 -24.5249 -63.7099 -19.7843 -447.747 -607.63 -403.51 -10.6633 56.1723 -132.635 -271.655 311.73
2507 2 -20.2736 -63.6194 -20.0105 -586.608 -310.705 -491.885 58.538 -6.73108 -215.569 -275.189 456.931
2412 2 -22.81 -63.3464 -15.5828 -462.454 -280.527 -703.791 43.3825 22.8841 62.7727 -268.743 392.791
2501 2 -20.9188 -62.2167 -14.2694 -239.97 -490.422 -631.523 12.626 -26.9074 100.586 -260.761 388.559
2 1 -22.3506 -61.9453 -14.9448 744.394 695.781 1065.85 -40.6691 56.236 -113.846 -807.969 417.916
2506 2 -18.3696 -62.5818 -15.3347 -152.641 -433.859 -514.537 -44.6063 -162.278 123.653 -269.889 489.001
2512 1 -19.3504 -62.5407 -14.0296 973.95 574.497 1143.44 76.3955 54.4003 67.2394 -805.968 544.007
2500 1 -19.5905 -62.4542 -20.9136 578.165 963.77 858.07 -148.639 -189.702 39.5349 -766.585 545.926
2732 2 -17.4863 -51.2514 5.37253 -530.25 -410.631 -365.849 38.2034 41.399 -222.459 -234.951 423.857
7397 2 -15.9502 -68.0259 -14.3574 157.164 -548.547 -595.958 208.243 97.6855 -93.2032 -287.792 847.654
7394 1 -11.8083 -67.472 -15.7685 846.351 180.995 1364.96 42.3302 -217.078 521.538 -740.64 1421.08
7402 2 -13.175 -67.0774 -14.9155 389.684 -361.272 -726.926 24.5302 -212.042 -62.9975 -274.376 1058.69
7400 2 -12.0402 -66.8253 -17.1681 -516.86 -338.136 -731.307 -52.1081 179.59 -284.186 -277.693 680.767
4903 2 -17.4719 -66.6121 -17.676 -429.828 -310.764 -632.231 70.4632 18.1035 -159.149 -279.66 413.649
7401 2 -13.8318 -65.6456 -18.8708 -407.547 -448.375 -234.234 61.319 425.195 -153.473 -269.167 814.307
7395 1 -12.3861 -65.5301 -18.0355 757.006 550.542 759.936 101.037 68.4079 412.809 -782.89 774.041
7398 2 -11.3649 -65.4005 -19.1864 -597.751 -681.397 -618.305 -203.711 65.4123 -74.658 -271.36 399.69
7393 1 -14.8558 -64.9572 -19.8601 577.513 878.602 1150.24 63.997 -20.7202 268.448 -773.799 689.928
4899 1 -17.2582 -64.9993 -17.8373 473.049 743.667 1070.99 -125.068 -15.7037 129.696 -783.226 605.876
4902 2 -16.1083 -64.7464 -18.9104 -386.319 -505.065 -698.465 157.466 -153.455 -134.231 -271.093 523.025
4908 2 -16.7381 -64.2603 -16.5123 -509.732 -58.1899 -633.649 109.006 48.31 129.712 -262.406 606.896
7404 2 -12.368 -64.3258 -17.0393 -463.058 -180.196 -495.827 -3.24483 46.9852 48.2077 -281.069 322.459
5003 2 -14.2087 -63.5701 -20.461 -374.428 -385.173 -554.137 59.7129 -130.163 -238.607 -280.067 512.644
4994 1 -12.2048 -63.0621 -16.0022 908.616 706.176 1322.58 -129.646 -155.114 16.0276 -788.536 647.712
5002 2 -13.2441 -63.084 -14.7321 -320.055 -463.678 -328.792 -52.1024 -171.905 173.156 -261.784 454.088
4997 2 -15.8128 -62.8164 -14.5708 -222.554 -451.284 -453.283 -83.0069 189.471 -204.65 -267.217 553.887
2498 1 -16.8535 -62.7717 -15.8058 826.797 790.695 1100.17 -100.307 83.0429 -49.1116 -789.8 379.492
2504 2 -16.5515 -61.6387 -16.9204 -490.864 -154.942 -384.518 38.2043 9.56012 -125.975 -278.154 375.088
7493 2 -10.7134 -63.1234 -15.3616 -365.674 -368.889 -501.68 95.5603 315.179 41.8081 -264.871 590.528
9893 2 -10.3555 -67.3144 -15.1355 -6.32532 -290.086 -737.859 -247.924 192.596 -38.672 -285.516 841.573
5133 2 -13.1805 -54.5684 2.26107 -266.315 -575.393 -504.173 51.2746 129.94 -13.3729 -238.502 371.034
7 2 -24.1557 -61.2011 -20.2938 -485.357 -542.376 -691.789 73.9644 43.9949 -30.4272 -264.779 243.086
2503 2 -19.575 -61.1206 -20.0128 -404.228 -268.813 -269.797 -42.4585 -41.7025 316.618 -274.956 574.083
8 2 -22.1564 -60.7992 -16.0305 -543.065 -380.811 -576.38 96.4321 4.04455 4.15669 -268.312 246.658
9 2 -23.1643 -59.877 -18.2988 -562.095 -450.11 -514.693 56.7682 46.9039 2.40087 -262.189 160.513
2497 1 -19.442 -59.8393 -18.9708 628.896 607.441 1138.76 11.4475 -82.2092 4.24136 -796.153 540.447
6 2 -20.5963 -59.8129 -17.8518 -262.369 -352.765 -463.137 -82.1415 -170.009 142.472 -271.687 445.169
1 1 -24.1913 -59.8623 -19.4714 755.651 566.311 955.299 8.17702 -190.039 -23.7943 -815.184 473.027
3 1 -22.042 -59.6629 -17.1327 1025.6 742.242 886.273 -140.739 38.781 -22.9647 -800.216 354.601
2603 2 -19.5649 -58.5434 -19.8664 -535.54 -402.056 -591.04 9.04469 -5.53532 5.75077 -268.101 169.538
107 2 -24.0178 -58.599 -20.4233 -405.094 -196.182 -481.312 -127.166 45.0334 -208.263 -259.435 500.095
12 2 -22.3282 -58.2941 -16.3296 -475.816 -377.921 -367.924 -24.843 -58.0031 278.961 -261.22 506.028
2597 2 -20.6636 -57.8651 -14.3186 -308.713 -369.785 -589.615 -113.628 157.523 144.506 -264.822 491.225
98 1 -22.1506 -57.547 -14.8914 938.547 616.144 1120.46 86.1041 97.028 -131.101 -807.98 545.65
2596 1 -19.5991 -57.044 -20.448 902.228 764.42 882.77 53.5536 51.4989 -33.1568 -802.389 191.172
2599 2 -19.9928 -55.9391 -19.3726 -565.027 -219.54 -546.656 -29.2814 48.1079 79.7206 -261.81 376.741
103 2 -24.4555 -56.0396 -20.1063 -559.552 -302.065 -511.83 59.2214 330.132 197.481 -258.774 714.681
104 2 -22.4223 -56.0277 -15.1982 -525.073 -482.527 -617.074 -56.7925 18.2715 -91.8849 -265.038 224.042
105 2 -23.4254 -55.3551 -17.5856 -395.782 -471.17 -101.222 -52.8089 245.649 29.6262 -259.829 553.792
97 1 -24.4274 -55.0545 -18.8413 1058.59 655.914 1031.89 143.377 21.5132 -3.4453 -814.008 463.898
102 2 -20.8583 -55.0566 -17.0742 -165.061 -431.288 -514.058 -77.0094 -197.856 55.5451 -261.418 494.217
2593 1 -19.6983 -54.8821 -18.1582 952.987 598.079 1047.99 71.6723 124.092 38.1903 -810.738 484.444
99 1 -22.368 -54.9906 -16.3874 1166.44 630.448 1084.98 85.341 -53.6365 101.792 -806.334 558.415
2601 2 -18.2096 -55.1995 -17.5394 -8.43094 -357.518 -519.674 -21.3314 182.725 58.2278 -260.571 562.552
2505 2 -18.0095 -59.9947 -18.3614 -278.356 -438.929 -597.846 -80.1692 48.6486 -17.3469 -269.86 322.242
5136 2 -11.5392 -53.68 4.11991 -601.474 -511.787 -255.16 48.1787 -13.2667 132.078 -244.38 395.907
2686 2 -18.1461 -56.7074 -21.0064 -270.17 -542.062 -800.317 -46.4323 63.1139 41.6799 -264.178 484.219
5000 2 -12.3677 -61.5603 -16.6093 -375.084 105.932 -702.753 115.619 70.4581 12.5925 -273.813 742.853
2602 2 -18.0458 -58.2017 -14.534 -394.42 -436.231 -322.772 37.4212 -239.871 -42.2111 -263.806 438.222
4999 2 -13.3489 -61.124 -19.8867 -397.163 -181.864 -492.356 -44.3427 24.526 246.27 -266.94 515.326
2499 1 -16.5804 -60.1733 -17.5704 895.153 811.094 1082.19 16.8642 -12.2127 -1.93509 -789.277 243.07
2502 2 -15.2994 -59.9369 -18.598 -130.571 -393.527 -489.933 129.389 -177.946 -91.6883 -271.748 523.669
4995 1 -11.9709 -60.0043 -16.8012 867.705 745.372 1018.94 34.2881 -210.12 -112.321 -794.607 479.753
4993 1 -13.837 -59.675 -19.1937 904.274 702.614 861.282 -118.005 -202.944 33.0014 -790.054 449.941
5001 2 -12.7887 -59.424 -18.0428 -530.629 -534.999 -646.32 -28.3164 93.4192 -97.3494 -265.229 264.415
2508 2 -16.4999 -58.9887 -16.4995 -497.268 -204.383 -583.439 -63.2116 -45.7177 130.312 -265.508 433.182
5004 2 -12.2732 -59.1023 -15.5219 -574.952 -238.685 -630.971 -81.1186 -22.9616 148.53 -266.638 471.759
5099 2 -13.8337 -58.6361 -20.3744 -473.724 -388.401 -521.993 45.0786 5.8219 -65.3817 -271.896 180.971
2594 1 -16.697 -57.9136 -15.3008 739.285 880.767 880.485 24.3579 -31.9348 -126.935 -820.373 270.471
5090 1 -12.0478 -57.8109 -14.6271 839.955 862.245 933.541 -63.5301 -12.7533 -226.239 -812.545 416.315
2600 2 -16.5552 -56.4226 -15.9111 -478.701 -239.127 -563.416 96.9916 -63.0347 -55.6057 -254.39 366.451
5096 2 -12.244 -56.408 -15.4217 -537.334 -209.069 -542.092 52.7256 27.8612 -10.3716 -262.11 346.892
5095 2 -13.9458 -56.1049 -20.0039 -487.381 -513.405 -523.579 26.2188 -0.791869 97.9895 -259.81 178.649
2598 2 -15.6096 -55.4046 -18.0957 -379.401 -473.05 -742.517 75.7727 -17.2221 19.6201 -261.106 354.806
5097 2 -13.0658 -55.3164 -17.6361 -524.404 -545.313 -752.136 -5.33933 -41.3565 -21.4311 -261.161 232.662
2595 1 -16.6631 -55.2031 -16.9697 795.775 612.665 1190.02 13.5491 211.797 -131.944 -817.708 669.701
5091 1 -12.1019 -55.1757 -16.4172 718.258 608.466 837.899 -127.867 -85.6049 -75.8771 -818.951 357.506
5089 1 -14.1576 -55.1212 -18.766 800.616 747.295 981.841 -15.8701 -137.955 -122.435 -815.153 384.929
5094 2 -10.6218 -55.0741 -16.991 -532.55 -444.904 -441.533 176.946 -83.7096 -41.1953 -261.195 357.815
5093 2 -15.5108 -58.0599 -14.276 -336.268 -629.544 -424.077 59.2761 123.054 135.3 -246.443 422.913
7589 2 -10.4741 -57.8962 -14.2394 -167.81 -540.449 -615.582 5.86878 100.371 94.5983 -253.158 479.244
203 2 -24.292 -53.5956 -19.381 -495.974 -547.265 -574.237 -123.471 31.3467 -100.082 -265.736 288.92
2699 2 -19.7591 -53.4341 -18.7359 -586.864 -646.477 -635.156 -55.0638 77.3109 54.0778 -258.776 196.995
108 2 -22.7025 -53.4978 -15.8681 -485.716 -413.325 -622.578 -125.789 -16.7449 114.763 -258.657 348.856
196 1 -24.2654 -52.658 -20.6671 857.163 567.621 1139.26 105.657 166.868 90.4262 -801.155 621.813
2704 1 -19.2183 -52.5273 -14.2652 709.49 1086.16 881.481 32.1144 117.165 -160.722 -815.239 477.965
2692 1 -19.6187 -52.3489 -19.8718 901.632 559.302 893.352 -71.6587 131.634 38.4692 -820.296 431.568
2693 2 -20.7218 -52.2722 -14.738 -274.242 -478.62 -578.562 -105.223 95.5714 78.3261 -258.226 388.853
194 1 -22.2492 -52.1041 -15.2771 867.973 522.293 1028.96 104.365 30.5417 -13.1672 -819.573 486.883
199 2 -23.7926 -51.2079 -20.2323 -490.686 -410.646 -550.274 -109.527 -10.7928 137.382 -269.392 328.155
2695 2 -19.805 -50.9039 -19.2829 -585.574 -533.861 -649.636 -58.298 -56.1472 -17.8194 -250.72 175.206
200 2 -22.2045 -51.0115 -16.4013 -546.697 -458.62 -535.074 -42.9249 35.8574 14.5091 -262.523 129.944
2689 1 -19.603 -49.4269 -18.679 566.854 873.662 917.621 30.1001 122.092 -37.2151 -832.23 401.426
198 2 -20.6895 -49.2394 -17.5977 -528.103 -662.518 -783.148 63.694 36.0875 -14.7255 -251.518 256.05
193 1 -24.1196 -49.795 -19.5765 884.439 743.892 1037.99 115.013 -91.1375 -11.7063 -807.352 360.449
201 2 -23.1184 -49.4089 -18.376 -478.451 -498.819 -300.234 -32.0532 186.573 23.1923 -254.904 380.697
195 1 -22.1583 -49.555 -17.0636 847.276 1022.44 865.638 -40.9723 43.8306 -97.0825 -817.55 258.605
204 2 -22.5307 -48.421 -15.9748 -547.55 -300.46 -428.888 -19.7878 51.9034 209.263 -255.606 431.791
2795 2 -19.7729 -48.2345 -19.7235 -560.96 -469.426 -543.942 -1.22622 102.635 -30.8711 -248.907 203.902
2698 2 -18.1985 -52.1465 -15.4128 -266.999 -491.025 -642.892 88.7557 -98.5175 -56.8876 -255.355 411.985
202 2 -23.349 -51.7801 -14.167 -73.5117 -538.462 -494.261 34.4238 -189.804 -71.6874 -255.842 569.763
2782 2 -18.1535 -52.5209 -20.4533 -465.39 -544.867 -617.21 36.86 34.4438 50.0905 -258.228 180.172
299 2 -24.0245 -48.5892 -20.6578 -515.943 -305.605 -603.014 -32.0145 -72.5733 -39.916 -261.825 306.257
2697 2 -18.0725 -49.4373 -18.2176 -346.575 -570.045 -672.465 -67.173 -53.1391 17.2406 -250.695 325.908
5188 1 -14.1272 -52.513 -20.6183 790.21 637.913 1279.42 -121.161 58.8918 -26.5529 -823.595 627.363
2604 2 -16.3629 -53.7963 -16.2771 -467.672 -169.085 -624.444 2.73556 -7.60135 121.682 -257.293 452.943
5100 2 -12.3743 -53.7466 -15.8027 -516.553 -318.234 -715.225 111.181 106.002 -9.7652 -256.763 435.064
5195 2 -14.0848 -53.6683 -19.4421 -445.427 -308.245 -479.257 57.4388 21.04 -280.482 -252.401 521.382
2690 1 -16.6435 -52.2148 -15.9271 943.895 924.746 911.655 -168.37 -75.4704 -57.3762 -811.225 335.853
7685 2 -10.545 -51.9628 -14.9391 -143.321 -441.448 -619.897 -23.0843 80.0206 57.7701 -255.035 452.488
5189 2 -15.6729 -51.8741 -14.7266 -520.256 -600.679 -492.583 17.6922 48.1473 24.8925 -263.424 138.607
5186 1 -12.0992 -52.216 -15.361 888.075 876.864 1233.58 105.593 14.6271 -79.7024 -816.231 420.148
2696 2 -16.4688 -51.2243 -17.1682 -520.897 -361.983 -473.95 36.1862 17.7021 -131.103 -260.369 276.458
5192 2 -12.3359 -51.1457 -16.5645 -517.604 -132.409 -446.225 79.6225 -99.17 -241.817 -252.435 591.544
5191 2 -13.7173 -51.1231 -20.0591 -528.79 -339.339 -625.23 -8.85721 1.46204 90.6142 -259.209 297.217
2691 1 -16.5575 -49.7593 -17.8094 714.687 859.001 966.499 -106.884 69.053 -28.0184 -824.116 314.37
2694 2 -15.5244 -49.6026 -19.0038 -21.7362 -484.978 -499.754 157.778 -191.82 -47.493 -258.596 643.031
5187 1 -11.934 -49.6566 -17.1328 1011.32 999.988 866.302 64.5978 -24.1337 -13.5886 -813.895 185.296
5185 1 -13.9129 -49.5779 -19.5329 1045.33 856.48 971.118 -27.1249 -213.066 37.1753 -798.038 411.949
5193 2 -12.9775 -49.3483 -18.2962 -368.729 -607.25 -493.799 -34.3425 83.1179 25.1244 -269.789 262.413
5196 2 -12.0842 -48.6744 -15.8386 -629.114 -523.736 -481.736 -77.8756 -113.805 51.9311 -254.342 287.112
2700 2 -16.2388 -48.7335 -16.6282 -616.908 -490.081 -544.645 24.2062 -72.9179 64.7768 -253.583 206.007
5194 2 -13.1982 -51.9742 -14.1856 -259.01 -577.671 -461.052 -32.3715 -215.122 53.7566 -257.286 478.151
5291 2 -13.6865 -48.5914 -20.7776 -402.056 -650.364 -368.031 16.1726 -38.1618 -92.9034 -268.608 319.86
5190 2 -10.4435 -49.5704 -17.7414 -194.388 -425.165 -294.778 12.7179 -273.382 63.7892 -260.387 526.379
4906 2 -18.4676 -68.9191 -13.7249 37.2165 -549.681 -1001.41 -98.6998 -0.781411 0.631671 -267.413 918.074
4913 2 -20.8442 -68.2377 -7.30507 -79.3039 -851.645 -150.333 91.8885 264.7 -26.5149 -234.157 885.627
2736 2 -17.39 -48.6324 4.95469 -507.961 -379.163 -448.274 96.061 15.8078 138.462 -244.874 313.707
10 2 -23.5181 -61.6968 -13.8841 -307.745 -626.391 -519.913 121.246 -111.699 -74.5451 -253.004 420.888
2422 2 -23.5172 -67.4111 -7.81282 -16.5838 -356.953 -652.254 -26.3284 -105.161 -54.3633 -263.883 589.65
2414 1 -21.9435 -67.2429 -7.99106 915.516 1149.53 850.788 -8.70984 21.2754 217.442 -805.11 466.402
2328 2 -21.7118 -66.8748 -9.55671 -650.584 -398.243 -90.2858 -85.0337 -41.6101 -305.435 -253.176 736.872
4915 2 -19.4016 -66.5997 -13.5387 -491.616 -336.395 -258.384 48.4977 -88.881 335.063 -274.837 640.191
2419 2 -24.8295 -66.2908 -13.4991 -453.818 -470.789 -55.8163 60.0028 175.94 172.712 -271.87 598.834
2418 2 -20.6132 -65.3936 -11.4904 -502.504 -501.609 -294.213 -9.75758 -290.678 -7.06903 -258.721 545.083
2421 2 -23.1951 -65.5358 -11.4299 -295.261 -539.476 -218.987 63.8284 277.063 132.676 -259.092 615.962
2415 1 -21.8476 -65.5309 -10.4618 1114.86 1213.78 876.133 30.6389 263.244 153.064 -813.891 609.412
4909 1 -19.375 -65.3329 -12.5039 1024.16 840.348 1034.92 45.9659 93.2913 -113.169 -808.77 326.727
2413 1 -24.5895 -65.3512 -12.1637 882.407 923.363 921.202 104.817 -96.9699 -46.7065 -818.551 263.263
2424 2 -21.7189 -64.3296 -9.31768 -642.104 -462.159 -407.505 148.65 151.072 196.419 -245.918 543.785
2519 2 -19.342 -64.004 -13.4593 -604.584 -369.484 -505.885 66.4134 -60.2006 -133.01 -257.821 344.947
23 2 -24.4964 -63.8681 -12.8415 -602.281 -442.16 -542.169 48.926 -45.8112 -59.1631 -251.894 208.819
22 2 -23.2822 -63.6702 -7.49523 -361.938 -435.401 -424.98 91.6549 -239.287 -53.8706 -237.992 458.719
14 1 -21.8317 -63.2854 -8.15779 1224.28 952.763 733.005 84.6753 87.6699 -247.209 -856.001 639.988
16 1 -24.8509 -62.3983 -13.2752 1159.47 731.808 805.633 1.52201 112.94 -143.963 -823.857 507.167
20 2 -21.8232 -61.8378 -8.89981 -730.899 -299.912 -517.238 85.0508 -166.597 -104.264 -239.284 526.206
2420 2 -21.1031 -66.1634 -7.04845 -57.938 -968.147 -260.821 105.053 191.453 -31.2643 -230.28 911.581
2428 1 -24.9719 -67.3715 -7.08483 926.755 1181.76 814.181 -109.606 -17.8749 -37.4191 -810.362 384.199
4918 2 -18.4254 -66.9871 -6.9362 39.1364 -367.759 -535.044 61.2293 -360.924 -23.6309 -259.426 815.681
2513 2 -20.7008 -63.2822 -7.04538 -541.086 -786.558 -279.348 -105.929 55.049 -59.4704 -236.146 496.363
7408 1 -14.3497 -67.8235 -13.9582 771.416 874.234 1226.51 245.518 81.3497 -178.077 -764.348 683.167
7409 2 -15.925 -68.0693 -7.55336 95.9053 -880.425 -504.693 23.0362 94.5368 -61.846 -235.233 876.034
9905 2 -10.5457 -68.0911 -7.25992 -68.399 -888.093 -319.956 90.0578 402.341 82.1106 -218.906 1029.16
4917 2 -18.0814 -65.3064 -11.5161 -495.734 -491.223 -197.174 -4.41366 189.652 103.422 -256.47 477.349
7414 2 -13.2747 -67.2642 -7.85355 85.1171 -349.647 -723.714 -61.9608 -90.6056 -0.974049 -266.996 726.447
4910 1 -17.063 -66.9884 -7.8502 787.002 1146.54 999.966 132.099 49.3699 265.976 -801.462 608.233
5008 1 -14.4762 -63.0368 -13.6923 942.913 862.639 1022.37 -88.1977 -53.4902 65.9964 -816.534 253.224
7406 1 -11.6681 -67.165 -8.02551 828.079 1016.99 1120.74 -188.726 -124.389 -7.02239 -812.21 468.476
7411 2 -14.2707 -66.9235 -12.6303 -518.173 -323.615 -478.081 -65.6082 48.1113 343.445 -267.09 636.695
7320 2 -11.3619 -66.745 -9.56488 -601.017 -187.156 -304.42 86.0903 -153.81 -257.54 -247.168 654.744
4824 2 -17.3622 -66.6224 -9.34895 -630.312 -625.183 -440.682 -95.6624 -63.6103 -67.8682 -261.31 297.362
4916 2 -15.7911 -65.9419 -7.33182 203.326 -810.626 -592.239 -18.8164 -4.25713 52.9954 -222.429 929.462
7405 1 -14.2682 -65.57 -11.7979 865.428 689.335 965.599 -38.3351 -144.327 -101.713 -827.549 395.751
4914 2 -15.5833 -65.4226 -10.8306 -181.766 -523.201 -457.668 -69.1768 -242.379 51.0826 -244.424 544.908
4911 1 -17.1151 -65.358 -10.2323 1116.98 971.464 636.426 59.8223 83.7733 214.229 -828.788 593
7407 1 -11.4703 -65.2923 -10.3546 826.601 1176.01 854.111 -41.7165 89.3953 -103.225 -825.026 417.604
7413 2 -12.9313 -65.3401 -10.9896 -572.301 -560.932 -563.837 144.482 90.2634 161.871 -251.366 407.161
4920 2 -17.1804 -64.0705 -9.2547 -590.801 -280.599 -117.824 105.795 -14.8281 331.71 -242.377 733.176
5015 2 -14.3775 -64.4109 -12.8699 -567.569 -420.081 -703.141 -33.8738 91.0708 -26.726 -251.779 300.989
7416 2 -11.1908 -64.0699 -9.34881 -561.81 -401.778 -630.123 99.3073 99.0923 173.833 -248.559 436.929
5014 2 -12.8963 -63.4345 -7.54391 -194.898 -518.169 -500.79 127.361 -209.765 41.5924 -235.625 533.896
2510 1 -17.0701 -63.0342 -7.90637 1043.09 829.871 1193.55 -81.2395 126.021 1.70819 -850.217 409.431
5006 1 -11.4186 -63.0693 -8.14342 1084.57 1053.38 891.888 16.2487 -74.5338 -298.884 -859.585 563.509
5011 2 -14.4315 -61.8158 -12.6016 -518.81 -133.036 -273.894 13.1606 -86.9885 330.771 -253.881 682.475
2516 2 -17.3281 -61.6145 -8.51812 -758.831 -429.746 -612.666 176.368 -132.558 -55.522 -240.161 486.663
5012 2 -11.4139 -61.5854 -8.8323 -575.47 -348.651 -432.518 56.3664 -115.667 -190.806 -238.848 445.362
5009 2 -15.5899 -62.9558 -7.3333 -433.159 -719.928 -625.273 14.8231 -54.2568 128.054 -236.036 350.337
7412 2 -10.9012 -66.0398 -7.14352 -131.148 -1123.71 -533.715 224.074 238.635 38.5598 -224.462 1036.15
7420 1 -14.6498 -67.1382 -7.08084 588.817 1249.99 1199.9 -76.3947 90.6129 -43.3491 -816.7 674.028
7410 2 -10.4735 -65.1826 -11.6 -582.114 -532.057 -438.843 35.7127 -52.7275 21.8594 -256.202 171.641
106 2 -23.2344 -58.1165 -13.8464 -492.299 -545.689 -556.67 31.8256 -123.53 50.0492 -250.373 244.723
2515 2 -18.8648 -61.5166 -12.8609 -590.912 -252.539 -209.077 -99.7653 -173.799 225.453 -251.767 635.654
19 2 -25.3501 -61.4905 -12.1001 -724.806 -436.195 -523.051 -17.9179 -16.1082 138.85 -247.737 354.052
21 2 -23.5044 -60.8586 -10.4255 -411.449 -591.054 -626.819 -93.8122 -120.624 99.6815 -242.816 373.928
18 2 -20.8986 -60.9977 -11.1608 -432.746 -611.361 -531.924 14.6619 -78.2444 89.1043 -253.652 258.563
15 1 -21.9907 -60.7302 -10.0301 780.219 795.705 909.106 -14.8425 41.2549 -108.554 -842.227 236.59
2517 2 -18.315 -60.4751 -10.6006 -220.181 -540.601 -502.686 97.5318 187.335 82.9251 -242.902 496.395
2509 1 -19.4919 -60.5046 -11.6962 1209.31 786.735 705.42 -177.453 121.437 21.3893 -824.848 599.686
13 1 -24.9423 -60.3602 -11.0225 905.548 1045.96 897.468 27.9373 227.149 -201.17 -840.991 547.223
2608 1 -19.3093 -57.9799 -13.4888 1037.55 700.062 1210.67 191.474 -129.618 -106.995 -806.732 630.103
24 2 -21.809 -59.1905 -9.64111 -599.366 -385.587 -594.537 -35.8929 -43.6864 51.9188 -251.069 249.739
2615 2 -19.6465 -59.0855 -12.3465 -625.807 -446.798 -379.54 118.924 -177.448 2.6128 -258.989 430.72
119 2 -24.6529 -58.9875 -11.8604 -608.084 -296.401 -546.078 -17.6664 31.5471 -95.1858 -244.364 335.809
112 1 -24.596 -57.9301 -13.0474 861.006 882.479 986.291 14.1398 137.345 12.4004 -837.733 266.682
124 1 -24.6381 -57.6467 -7.45179 1077.3 1056.52 967.505 15.9094 196.575 -180.706 -847.433 474.188
110 1 -21.9637 -57.693 -9.1106 1005.32 642.114 926.928 -127.025 6.04845 123.704 -837.041 451.682
118 2 -23.4751 -57.4301 -8.50627 -408.907 -496.353 -550.861 -97.3477 -259.431 105.304 -240.718 528.199
2609 2 -21.0921 -57.4517 -7.8006 -488.72 -522.283 -221.775 55.5546 139.397 36.3306 -249.537 390.972
116 2 -21.7313 -56.6353 -10.2153 -589.663 -374.64 -607.165 12.1648 36.3049 -2.03766 -257.527 233.913
2611 2 -18.9509 -56.5488 -12.7806 -516.99 -102.767 -541.459 11.1723 32.6261 251.062 -254.978 612.356
115 2 -24.5964 -56.3972 -12.5367 -564.837 -311.454 -656.625 45.3334 91.0881 52.6916 -248.007 367.793
111 1 -21.6983 -55.0974 -10.7369 906.716 1006.54 865.929 45.5531 251.117 -91.0125 -816.682 485.753
109 1 -24.6676 -54.927 -11.9161 686.883 850.434 1079.69 190.998 202.269 -174.543 -833.074 663.61
2614 2 -18.3803 -57.3462 -7.5355 -86.3375 -586.409 -321.423 -29.1083 -261.538 71.4324 -249.61 640.962
131 2 -24.7051 -59.2678 -7.08545 -638.475 -81.6617 -663.258 -17.7306 -143.467 -153.116 -233.61 676.372
7601 2 -10.6879 -57.2366 -7.84466 -586.572 -632.991 -518.247 -43.9906 49.1126 -111.137 -244.608 245.134
2514 2 -15.7533 -60.8663 -10.4303 -654.235 -604.377 -543.375 -44.7119 -59.2385 150.539 -248.774 306.201
5013 2 -13.1527 -60.8192 -10.565 -546.495 -443.201 -667.841 72.8822 93.9307 67.7577 -247.812 306.768
5010 2 -10.76 -60.6768 -11.3256 -715.197 -411.831 -389.946 131.495 -145.587 -19.7394 -250.39 464.519
5005 1 -14.4866 -60.7212 -11.3776 734.09 1114 1079.82 -131.2 24.584 -165.688 -831.093 518.001
2511 1 -17.0007 -60.4488 -9.58314 1008.39 890.633 998.006 88.1242 201.546 -66.43 -840.664 413.705
5007 1 -11.6583 -60.5331 -10.0221 800.625 836.912 1222.43 11.2938 50.526 -59.722 -839.648 427.404
5016 2 -11.5112 -59.0301 -9.42505 -479.724 -474.933 -646 48.9667 28.852 182.866 -245.743 372.126
5111 2 -14.6998 -59.1721 -11.9953 -505.003 73.9 -523.543 -102.693 83.7156 -63.0799 -249.678 640.941
2520 2 -16.8251 -58.9798 -8.94862 -499.609 -126.389 -500.767 -36.8068 -13.1486 163.972 -251.731 474.31
5098 2 -13.0395 -57.8198 -13.3797 -515.504 -593.096 -617.2 26.3647 -22.7098 114.664 -258.56 227.041
5104 1 -14.5385 -57.8455 -12.9113 777.144 695.125 1119.61 -2.39599 231.492 -296.285 -822.006 759.103
5102 1 -11.6771 -57.5147 -9.02777 851.931 809.393 934.659 -74.468 -91.6869 -154.824 -839.501 354.88
2606 1 -17.0014 -57.4382 -8.41293 765.506 1027.65 1139.81 -49.3552 -165.853 -75.1072 -833.85 466.319
5110 2 -13.1838 -57.338 -8.44477 -264.678 -645.329 -405.726 73.6083 -206.96 105.275 -244.337 537.68
5105 2 -15.7285 -57.1142 -7.57905 -329.895 -505.798 -690.551 -97.9295 2.61789 -26.1018 -247.825 358.343
5108 2 -11.4589 -56.6106 -10.3431 -439.975 -437.743 -309.906 67.0786 18.1038 -121.308 -255.224 274.338
2612 2 -17.0669 -56.3855 -9.66012 -538.915 -286.931 -370.722 -34.7574 20.4843 -205.43 -249.712 425.312
5107 2 -14.9179 -56.441 -12.3845 -538.727 -347.099 -692.695 43.0782 30.0579 14.6216 -257.211 314.405
5103 1 -11.5169 -55.1682 -11.0893 824.344 1052.79 1004.19 -129.701 -31.3641 -177.575 -822.514 437.567
5116 1 -14.1912 -57.5711 -7.2033 996.799 910.525 1064.23 -175.661 40.6741 -83.5185 -840.336 369.145
5101 1 -14.622 -54.903 -11.9297 732.362 867.209 1190.41 85.7351 150.061 -91.2771 -827.067 529.928
5106 2 -10.403 -55.0208 -12.2395 -276.651 -526.837 -523.535 31.0709 -72.0526 79.774 -261.401 315.183
5109 2 -13.0441 -54.8454 -11.5261 -77.6618 -510.875 -707.855 -82.7458 -55.186 37.256 -248.911 587.92
117 2 -23.2448 -54.7099 -11.1488 -38.9123 -546.566 -539.9 -133.224 120.528 47.5361 -248.174 598.313
2605 1 -19.2539 -54.9867 -12.4115 623.017 815.83 819.505 -105.266 34.8069 -56.8946 -813.232 290.668
114 2 -20.7269 -54.8738 -11.9358 -745.88 -514.407 -706.457 28.2505 60.1511 10.2753 -262.535 244.078
2613 2 -18.2603 -54.572 -11.2749 -445.076 -577.245 -644.239 -25.4456 -24.8586 -68.7552 -262.456 220.883
2711 2 -19.0864 -54.079 -13.7202 -537.616 -151.063 -426.308 10.7749 5.06896 -87.6146 -259.682 377.149
120 2 -21.2366 -54.089 -9.5546 -691.325 -244.648 -446.141 16.1833 30.6259 206.697 -251.607 530.931
215 2 -24.7705 -53.7226 -13.0019 -515.625 -293.795 -459.746 -18.8236 -43.6943 -107.858 -257.498 285.703
214 2 -23.0849 -53.1914 -8.03609 -330.763 -679.027 -405.933 109.704 -139.249 -95.0143 -244.009 471.294
206 1 -21.5922 -52.8659 -8.57862 1146.06 1014.08 719.287 23.9943 79.158 -100.492 -834.95 440.508
208 1 -24.83 -52.2245 -13.5474 1067.18 996.006 853.005 101.505 -38.9712 -88.1256 -816.56 307.338
212 2 -21.6295 -51.4687 -9.35139 -637.989 -574.66 -539.098 -19.3573 -67.0606 78.8116 -252.751 201.932
2707 2 -18.8488 -51.4697 -13.1178 -517.24 -325.772 -655.905 51.0987 44.8552 154.294 -257.584 409.545
211 2 -25.227 -51.2515 -12.3308 -468.907 -366.568 -237.136 -37.8314 -47.0382 276.107 -254.931 529.252
213 2 -23.2945 -50.2771 -10.7951 -402.719 -556.276 -650.782 26.429 12.6961 152.763 -255.246 345.85
210 2 -20.7313 -50.3176 -11.5928 -145.344 -512.478 -381.443 -31.8254 -302.341 65.1437 -243.605 627.575
2701 1 -19.1341 -50.318 -12.0593 1083.34 844.591 825.716 -93.4025 -105.929 -156.585 -824.071 441.874
207 1 -21.7881 -50.2705 -10.3278 767.989 714.007 1174.53 175.082 -101.873 -45.2941 -833.902 565.142
205 1 -24.8247 -50.0811 -11.2075 644.059 925.511 1029.71 96.1036 131.924 59.5563 -818.215 458.215
2807 2 -18.886 -48.9101 -12.7323 -578.401 -414.279 -529.965 -51.4026 73.1397 -49.7456 -256.273 229.633
216 2 -21.446 -48.8856 -9.54965 -545.522 -534.445 -585.842 72.4503 56.8132 146.739 -250.235 303.682
311 2 -25.0083 -48.7275 -11.9425 -577.28 -646.172 -438.631 -3.30932 -25.1549 -34.7781 -253.572 197.689
2709 2 -18.388 -50.578 -10.6623 -546.687 -565.978 -285.972 42.3171 41.6265 40.4698 -257.118 298.091
2705 2 -20.5305 -52.8191 -7.35146 -294.458 -729.94 -349.311 -0.0112111 174.079 51.0193 -247.285 517.189
2607 1 -17.1269 -54.8581 -10.2056 975.741 1054.52 660.389 -62.2132 -45.7562 -206.265 -826.822 525.382
2610 2 -15.6371 -54.5511 -10.7854 -241.794 -651.789 -612.315 15.929 -29.5637 76.9098 -251.625 417.85
5112 2 -11.3381 -54.0564 -9.94107 -690.938 -466.911 -552.108 3.86326 -42.4184 104.081 -251.007 276.227
2616 2 -17.3788 -53.9314 -8.94698 -657.73 -332.826 -410.15 81.7266 70.5341 244.713 -246.94 548.666
5207 2 -14.7732 -53.8411 -13.1323 -494.244 -80.0047 -547.768 36.4298 -16.1422 -220.965 -248.461 589.805
5206 2 -12.9114 -53.0624 -8.13819 -377.933 -627.62 -441.583 6.34549 -214.488 42.204 -238.424 440.434
5201 2 -15.4681 -52.7751 -7.49899 -130.877 -545.353 -532.231 -6.34257 71.4592 79.8491 -252.409 448.433
5198 1 -11.4622 -52.9311 -8.86693 1066.3 861.433 758.716 41.9817 -2.97308 -241.918 -843.159 504.432
5200 1 -14.6479 -52.2366 -13.5886 773.45 1123.42 955.166 -15.9524 -114.888 -165.434 -816.914 463
2702 1 -17.0971 -52.8044 -7.76577 1035.23 1136.68 811.09 45.4006 127.772 -41.3552 -826.849 378.894
5204 2 -11.4234 -51.4557 -9.4589 -666.484 -351.721 -695.19 -73.2238 89.0004 128.013 -245.896 444.911