ITEM: TIMESTEP
0
ITEM: NUMBER OF ATOMS
29952
ITEM: BOX BOUNDS pp pp pp
-2.5615833775063237e+01 3.5601128117061187e+01
-6.1470053122334242e+01 7.1455347456532976e+01
-2.1035324467156940e+01 3.4903177627851115e+01
ITEM: ATOMS id type x y z v_StrAtomXX v_StrAtomYY v_StrAtomZZ v_StrAtomXY v_StrAtomXZ v_StrAtomYZ c_PEAtom v_VMS
1 1 -24.4271 -57.9752 -19.293 1035.52 1135.93 873.335 115.345 -38.94 104.435 -827.994 360.354
2 1 -22.1785 -60.4223 -15.816 1004.28 938.621 852.879 -34.2078 -31.9028 199.961 -840.788 379.223
3 1 -21.9023 -57.9516 -17.557 794.278 729.976 1193.57 6.37633 -69.3278 29.9767 -830.57 454.405
6 2 -20.38 -58.1381 -17.9769 -414.322 -541.205 -543.595 60.4148 -95.477 -34.8181 -251.715 241.542
7 2 -24.869 -59.1276 -20.4341 -638.899 -115.382 -227.45 84.3775 181.977 282.408 -243.458 766.765
8 2 -22.2607 -58.9486 -16.3349 -582.822 -470.238 -465.024 65.432 -4.63544 -77.2086 -253.044 209.956
9 2 -22.9112 -58.1925 -18.7968 -310.509 -577.059 -420.387 -44.641 212.697 -45.5008 -250.606 449.159
10 2 -23.2259 -60.7319 -14.636 -538.838 -621.191 -250.299 17.6046 -102.995 -90.6634 -242.851 413.778
12 2 -22.0552 -56.4178 -17.1573 -527.336 -361.506 -636.233 90.137 81.1067 30.0496 -252.031 322.853
98 1 -21.9542 -54.9433 -16.5352 954.802 821.206 926.129 56.1345 -127.832 49.7075 -827.735 284.128
103 2 -24.6083 -53.7835 -20.5216 -594.54 -107.61 -555.453 59.3036 -19.4908 26.8053 -253.106 483.159
104 2 -22.3183 -53.8185 -17.6111 -602.394 -575.732 -517.177 -91.8057 45.3327 -10.7035 -256.772 193.635
106 2 -22.934 -54.9395 -15.2371 -615.295 -609.051 -204.736 22.2836 -55.8462 -41.3193 -249.1 426.617
107 2 -24.5622 -56.517 -19.9453 -581.3 -146.728 -247.641 -71.6788 77.8155 -232.964 -259.047 592.94
2497 1 -18.9064 -57.9073 -18.5623 903.886 997.177 981.601 79.1744 -18.1429 -4.86265 -837.924 165.399
2501 2 -20.7487 -60.6442 -15.1274 -397.852 -596.176 -391.214 28.1364 236.574 -13.4412 -242.271 459.904
2503 2 -18.5871 -58.9821 -19.703 -531.607 -458.784 -293.94 -35.8242 -16.8637 145.62 -249.657 335.857
2597 2 -20.5418 -54.5811 -15.8963 -503.022 -533.946 -389.246 28.3091 218.859 101.647 -251.316 441.042
2599 2 -18.6613 -53.8913 -19.806 -506.39 -427.893 -593.292 164.559 102.976 65.0382 -248.749 382.461
2603 2 -18.7797 -56.4274 -19.205 -603.598 -487.758 -767.323 -5.18903 -67.3837 33.6183 -245.082 276.195
2596 1 -18.88 -55.4162 -20.365 911.688 825.152 766.776 150.543 31.4733 214.022 -840.963 473.63
2608 1 -19.5672 -54.734 -14.6061 1042.71 760.756 777.223 -63.2694 -19.2502 -54.6885 -833.329 311.803
2507 2 -18.7115 -61.4688 -20.3273 -576.669 -424.684 -511.606 -10.7486 16.7197 -139.826 -242.077 277.999
2506 2 -18.0541 -60.4312 -14.6546 -195.21 -523.622 -574.795 -61.546 -63.9075 13.1073 -244.808 389.115
2512 1 -19.5804 -60.2803 -14.045 1114.28 929.144 1260.36 -44.1681 -60.7423 -72.1276 -836.404 339.394
2602 2 -17.9872 -54.7676 -15.0257 -224.369 -539.641 -537.014 -51.3068 -53.4002 23.3489 -247.58 341.56
2500 1 -18.8513 -60.0291 -20.9256 973.731 907.105 789.275 37.9085 78.872 101.879 -843.426 283.346
101 2 -25.3948 -54.846 -14.6614 -322.873 -635.13 -474.666 -104.385 187.679 -151.572 -243.456 529.555
27462 2 -25.4173 -58.1801 -18.0461 -266.706 -541.319 -423.351 -14.7346 -167.594 -42.7151 -252.424 383.824
2505 2 -17.8283 -57.9564 -17.3538 -409.505 -572.707 -351.244 -49.8304 230.592 53.8946 -242.94 463.917
2498 1 -16.5257 -60.2781 -15.0686 940.5 873.321 1028.29 171.335 47.1833 158.604 -848.247 433.969
2499 1 -16.384 -57.7519 -16.624 1162.67 562.63 952.204 54.7751 -3.02655 12.9552 -847.921 536.269
2502 2 -15.2946 -58.0038 -17.8109 -496.809 -664.204 -222.37 -13.9422 -157.911 27.8479 -235.398 476.439
2504 2 -16.2142 -58.7714 -15.4427 -582.556 -548.872 -641.916 -50.4891 -29.9429 60.5647 -247.263 167.329
2508 2 -16.2041 -56.2542 -16.2428 -570.687 -497.16 -692.967 -41.5326 14.5563 -70.4109 -241.051 223.681
2594 1 -16.5012 -54.7766 -15.6327 848.884 862.89 1066.29 -2.83494 -168.697 97.631 -842.071 398.009
2600 2 -16.3271 -53.6129 -16.6976 -593.187 -328.611 -505.876 35.6098 -32.3141 -111.6 -247.585 314.362
4993 1 -14.3396 -57.8876 -19.1251 878.51 947.434 983.105 -15.4526 -138.267 52.2162 -851.12 273.369
4994 1 -11.9258 -60.5156 -15.7341 1104.45 1093.37 849.516 16.8487 -27.7584 31.3656 -851.487 261.54
4995 1 -11.7412 -57.9009 -17.4338 926.994 767.304 1255.1 15.9093 -81.2866 -11.8257 -856.83 454.475
4999 2 -14.5555 -58.9125 -20.3237 -596.447 -408.153 -426.975 -14.4503 -12.9669 73.6503 -250.814 222.864
5000 2 -12.117 -59.007 -16.2948 -582.699 -312.772 -453.121 75.1887 -92.3723 -182.207 -235.157 443.656
5001 2 -12.8639 -58.0197 -18.5615 -499.927 -632.192 -694.879 65.0629 120.15 23.1363 -235.732 295.514
5002 2 -12.9742 -60.8271 -14.5396 -384.384 -603.351 -388.378 36.291 -109.632 -89.8689 -243.031 333.655
5004 2 -11.7652 -56.4408 -16.8462 -587.758 -451.481 -677.683 -37.1338 -0.568889 -43.603 -238.764 220.803
5090 1 -11.8142 -54.876 -16.4604 975.227 945.614 956.522 91.8849 -131.67 46.5289 -848.134 290.701
5093 2 -15.3554 -54.6295 -14.5311 -758.105 -616.962 -730.396 -36.1126 -5.11544 -120.444 -242.853 253.553
5095 2 -14.3707 -53.8176 -20.2888 -521.01 -433.215 -668.599 -21.0871 11.1406 62.2586 -240.832 236.184
5096 2 -12.0737 -53.8746 -17.641 -575.17 -365.904 -499.712 -76.9686 -19.8957 -111.387 -249.438 299.794
5098 2 -12.9382 -54.7979 -15.2514 -385.732 -627.402 -228.495 63.8835 -206.082 -21.4355 -239.193 512.014
5099 2 -14.4487 -56.3758 -19.6391 -624.228 -485.478 -727.391 31.5677 61.6519 56.7669 -238.994 261.281
7589 2 -10.3994 -54.5643 -15.7949 -401.811 -677.197 -408.672 -101.535 127.919 -16.649 -242.785 393.503
7493 2 -10.4061 -60.5565 -15.1884 -240.034 -605.462 -445.102 54.1412 150.753 14.8051 -240.702 422.236
4908 2 -16.3003 -61.259 -16.3383 -646.699 -259.66 -312.088 -101.021 -10.6167 178.897 -243.399 509.138
5092 1 -14.2051 -55.32 -20.7711 651.986 698.789 1202.36 -3.90846 73.406 56.5365 -857.686 552.394
2692 1 -18.9993 -49.8012 -20.9733 1146.99 902.781 705.209 -102.659 62.5949 -64.8432 -845.519 450.454
2873 2 -20.647 -45.2726 -20.8857 -327.44 -586.973 -400.235 14.4207 220.28 -33.7653 -243.062 450.973
97 1 -24.5886 -52.2576 -19.9598 950.191 953.73 876.137 -14.8973 -0.350062 201.839 -831.456 358.667
99 1 -22.0405 -52.401 -18.1828 942.215 875.039 957.014 -95.1833 -89.5732 154.807 -832.032 358.986
102 2 -20.5616 -52.4499 -18.8427 -155.803 -541.23 -535.591 29.713 -66.9563 18.1127 -246.739 404.345
105 2 -23.1629 -52.005 -19.2833 -453.708 -569.427 -459 -8.16505 211.234 -43.7185 -248.652 390.64
108 2 -22.0153 -51.271 -16.9996 -607.753 -409.839 -388.763 88.944 24.1276 95.1905 -248.628 310.562
193 1 -24.6126 -47.6397 -19.33 1020.8 1153.22 896.245 -29.3692 3.48871 -20.6867 -835.398 231.197
194 1 -21.8148 -50.2711 -15.7835 949.953 982.279 613.445 -126.067 -17.6462 -26.6247 -840.682 419.404
195 1 -22.0265 -47.7173 -17.5578 883.332 939.321 1070.14 -14.1675 -183.08 127.034 -844.8 420.881
198 2 -20.5291 -47.8373 -18.1454 -271.865 -533.653 -595.853 -2.11609 -55.8934 -35.0136 -248.917 318.98
199 2 -24.8572 -48.7715 -20.4636 -621.459 -432.112 -415.477 96.6932 144.497 113.003 -249.5 410.213
200 2 -22.167 -48.7954 -16.3836 -569.557 -436.299 -445.071 -68.8038 96.5691 -156.833 -240.318 364.19
201 2 -23.1685 -47.8202 -18.626 -431.926 -557.678 -541.444 -63.3783 169.816 -101.517 -248.908 378.835
202 2 -22.8344 -50.4986 -14.6188 -555.18 -611.782 -543.222 -4.81222 23.8447 137.03 -250.002 249.259
204 2 -22.1836 -46.1879 -16.9234 -591.975 -73.3433 -507.421 -69.2933 -37.0284 125.938 -242.366 546.237
299 2 -24.8048 -46.1292 -19.9625 -597.508 -233.338 -626.428 -117.609 183.632 -58.315 -247.23 544.837
2593 1 -18.9745 -52.4572 -19.2695 960.889 747.783 1079.77 -39.1262 -94.0623 -71.901 -834.846 362.667
2689 1 -19.0198 -47.6626 -18.6646 979.066 823.593 1132.87 38.4683 14.4147 114.284 -837.058 340.566
2693 2 -20.3308 -50.3832 -15.2262 -470.893 -575.43 -479.602 -9.17406 128.832 -57.1047 -248.778 264.428
2695 2 -18.8072 -48.6903 -19.8942 -617.485 -517.323 -447.79 17.3041 29.608 16.0767 -250.521 161.665
2699 2 -18.7539 -51.2492 -20.3133 -549.619 -321.389 -514.731 -13.5265 38.4385 -119.242 -247.308 304.928
2795 2 -18.8167 -46.1932 -19.2288 -549.466 -446.563 -616.113 -10.863 -15.9906 -106.216 -245.871 238.444
2788 1 -19.1785 -45.0538 -20.2943 1027.83 848.204 1120.65 -64.1333 -85.5515 158.26 -841.951 408.644
2601 2 -17.9711 -52.1772 -18.0351 -379.787 -635.251 -514.106 88.1692 78.2066 27.216 -251.766 304.766
292 1 -24.6664 -44.972 -21.0053 753.475 671.278 1147.32 -93.0174 84.4535 84.0435 -838.826 512.624
197 2 -25.3655 -50.3806 -14.1079 -464.586 -616.036 -541.702 -65.4335 100.239 -50.4563 -241.781 260.443
2697 2 -17.9501 -47.7578 -17.4133 -419.549 -579.013 -301.466 71.3808 213.663 121.715 -243.417 504.864
2698 2 -17.7812 -50.3446 -14.4767 -738.623 -558.349 -728.693 -33.1094 34.5962 74.7046 -245.164 233.3
2595 1 -16.5049 -52.1937 -17.4762 900.339 1285.11 799.324 16.5644 -40.2512 113.137 -830.45 491.124
2598 2 -15.3889 -52.0765 -18.6166 -345.977 -628.56 -453.622 -20.2752 -66.4637 -27.5429 -256.008 278.896
2604 2 -16.2367 -50.9623 -16.3457 -562.338 -446.682 -340.535 103.592 205.87 133.381 -242.31 499.633
2690 1 -16.3753 -50.1074 -15.0401 526.617 834.409 948.416 -22.7335 79.9471 -79.8516 -848.047 427.408
2691 1 -16.4821 -47.5719 -16.7984 1013.25 896.69 867.563 -8.23719 -19.6453 -41.0305 -844.029 155.699
2694 2 -15.4629 -47.9394 -17.9895 -588.091 -628.684 -429.461 -24.0294 11.9334 84.7186 -246.274 238.625
2696 2 -16.3004 -48.6014 -15.5809 -555.157 -527.771 -550.625 -59.1859 5.24689 -153.218 -241.306 285.77
2700 2 -16.2947 -46.0569 -16.3481 -514.553 -346.731 -460.206 -59.9322 -54.4696 154.427 -246.808 336.476
5089 1 -14.358 -52.2721 -19.8022 744.672 1046.54 981.625 107.412 -53.7503 99.007 -840 385.263
5091 1 -11.8245 -52.3749 -18.2217 695.721 1231.23 1048.37 20.3002 -81.1376 55.6436 -843.072 502.556
5097 2 -12.8773 -51.9531 -19.3279 -423.275 -622.888 -670.568 -83.564 -5.28334 -77.747 -244.704 301.335
5100 2 -12.0546 -51.3228 -16.9596 -566.568 -240.299 -326.963 -51.2895 -119.921 252.312 -242.599 572.456
5185 1 -14.4314 -47.856 -19.1769 1036.89 1015.59 718.358 -56.0916 -10.2835 -8.52369 -849.459 324.202
5186 1 -11.8743 -50.2606 -15.7616 934.114 1027.34 992.012 4.90392 -66.104 105.064 -852.086 230.092
5187 1 -11.8486 -47.721 -17.4517 848.448 876.978 1311.75 -13.3635 -56.2156 104.67 -848.209 495.104
5191 2 -14.6611 -48.8606 -20.3938 -653.901 -543.879 -506.436 -20.2857 -88.5419 1.40349 -240.66 205.878
5192 2 -12.0528 -48.746 -16.2301 -557.34 -256.924 -677.093 64.7344 -11.1861 -105.48 -243.599 432.309
5193 2 -12.9535 -48.1088 -18.5848 -466.015 -572.399 -448.409 75.5653 183.557 39.9008 -233.553 369.441
5194 2 -12.8159 -50.4997 -14.4612 -475.061 -635.898 -232.028 -34.0487 -145.465 -11.3272 -241.867 437.453
5196 2 -11.9498 -46.1666 -17.1139 -520.104 -277.94 -605.773 -22.0027 -11.2747 1.28595 -250.332 297.603
5291 2 -14.4877 -46.3338 -19.7267 -596.183 -282.859 -522.255 -31.4928 101.522 -105.191 -245.445 384.142
5190 2 -10.4096 -48.066 -18.137 -275.137 -525.991 -553.762 -72.0617 -186.257 14.153 -235.962 436.944
7685 2 -10.3667 -50.4158 -15.2161 -311.802 -643.523 -562.469 5.60737 185.896 -22.2124 -234.024 441.552
5284 1 -14.4743 -45.0805 -20.7119 1077.99 889.702 1103.73 -65.516 -76.4282 22.1787 -845.505 269.883
7865 2 -10.3889 -45.4059 -20.9348 -429.161 -701.528 -539.137 -46.6857 54.1742 66.1169 -241.211 291.174
112 1 -23.9246 -55.1025 -13.9916 1039.3 1119.41 756.615 -76.9595 -40.1194 71.1869 -832.933 383.111
2615 2 -19.8401 -56.1531 -13.9865 -672.073 -510.262 -442.051 -69.2527 -19.3266 -83.9991 -247.804 280.266
16 1 -24.1455 -60.6235 -13.2966 1094.21 834.215 940.964 50.4759 -117.719 106.48 -839.867 366.702
13 1 -24.0317 -57.6669 -12.1365 1016.07 907.98 1215.01 -29.7206 -189.474 -13.8022 -832.808 428.585
14 1 -21.478 -60.1807 -8.71132 1016.9 892.182 1152.93 89.328 -115.606 58.4383 -839.557 353.982
15 1 -21.5192 -57.5434 -10.3123 1207.19 709.721 805.41 -78.6113 -16.2777 12.6826 -832.326 478.38
18 2 -20.5739 -57.3088 -11.607 -538.107 -577.78 -238.551 -28.3438 -109.045 8.79557 -250.203 376.174
19 2 -23.847 -59.1697 -12.719 -570.972 -229.21 -576.772 108.048 92.9857 87.9441 -249.289 450.534
20 2 -21.3293 -59.0423 -9.8592 -611.498 -447.288 -583.846 -35.8843 9.08265 -187.001 -242.849 363.603
21 2 -23.0492 -57.3465 -10.9273 -281.978 -465.505 -388.897 50.1716 267.667 28.3514 -251.632 500.391
22 2 -23.0005 -60.0611 -8.14995 -302.404 -545.44 -547.417 -145.745 -108.636 61.3126 -244.034 412.26
24 2 -21.2676 -56.6899 -9.02256 -554.137 -405.347 -205.992 -41.0108 -35.7376 119.634 -254.149 378.626
110 1 -21.5124 -55.4474 -7.91453 866.331 1162.22 915.405 71.6973 -155.091 108.561 -820.817 445.396
115 2 -23.7798 -53.9374 -12.8662 -651.835 -492.717 -515.418 13.3758 44.6267 16.5062 -253.202 171.902
116 2 -21.3056 -54.0525 -8.72574 -540.572 -294.118 -306.836 14.1153 -49.6404 -169.713 -257.197 390.083
118 2 -23.0154 -55.5561 -7.37745 -185.696 -472.527 -524.109 -41.1284 -124.741 -29.9401 -258.415 392.649
119 2 -23.8103 -56.5487 -13.3259 -527.182 -252.961 -357.033 31.4942 17.7728 -207.949 -252.378 437.197
2509 1 -19.6242 -57.3443 -12.9072 969.831 811.91 1021.54 152.737 -46.2337 -45.9475 -834.574 344.254
2513 2 -20.3421 -59.8981 -7.61714 -466.797 -507.957 -503.967 -37.4331 142.77 17.1675 -247.847 260.353
2515 2 -19.8353 -58.7724 -13.5933 -510.493 -318.093 -604.523 -18.7791 17.699 38.2185 -253.812 265.199
2611 2 -19.7953 -53.642 -13.5183 -666.064 -682.064 -583.656 22.1582 -24.9532 -110.329 -253.986 219.599
28 1 -24.5413 -59.9969 -7.71856 900.323 989.741 936.221 -136.348 -126.512 89.153 -849.122 365.66
2517 2 -18.1494 -57.1363 -12.3314 -344.128 -486.35 -446.571 -23.7662 262.927 53.4111 -249.101 483.525
2614 2 -18.0643 -55.5273 -7.63045 -485.487 -541.916 -175.922 7.14923 -174.73 -44.2021 -249.721 462.699
2519 2 -19.5867 -61.39 -12.8038 -617.591 -244.501 -348.04 -7.57835 79.8151 -312.198 -239.192 650.364
35 2 -24.7639 -61.4586 -7.09165 -686.12 -385.443 -535.849 -57.4741 103.242 -114.035 -237.119 385.621
17 2 -25.469 -59.8766 -9.01462 -324.563 -574.29 -455.027 142.921 135.851 73.9489 -239.487 424.094
113 2 -25.5726 -55.5005 -8.0738 -563.014 -574.886 -621.455 19.586 32.4715 22.8371 -253.92 93.4941
4997 2 -15.4723 -60.6387 -13.8902 -413.055 -674.889 -459.908 -170.746 139.974 -38.2442 -235.914 457.289
5104 1 -13.9506 -54.8978 -13.9953 675.761 1119.46 862.384 -90.8927 -155.549 -81.7257 -848.021 516.045
2518 2 -17.8721 -59.6942 -8.19447 -457.326 -514.848 -412.395 -39.8329 -161.857 15.7216 -243.842 303.326
5008 1 -13.9787 -60.6451 -13.2999 994.523 798.136 826.912 72.9886 -41.0357 251.962 -853.836 495.21
2510 1 -16.8602 -60.0197 -9.44527 1125.42 999.241 1185.71 55.2034 -11.7918 57.7329 -831.717 216.156
2511 1 -16.9848 -57.4672 -11.2204 1093.84 905.266 1128.57 -11.5308 -171.173 -56.5278 -829.564 375.769
2514 2 -15.4692 -57.404 -11.8566 -119.59 -568.107 -521.335 -60.1852 -51.6058 63.3868 -245.177 461.83
2516 2 -17.191 -58.9719 -10.6643 -559.635 -183.889 -439.49 -88.7748 101.211 -282.411 -247.444 635.703
2520 2 -17.166 -56.5237 -9.9348 -536.632 -609.652 -476.904 -41.7191 -56.4163 -2.01042 -257.236 167.46
2606 1 -16.9689 -55.4228 -8.85845 1005.28 977.636 698.585 -25.4507 -67.7559 -132.374 -830.452 393.232
2612 2 -17.1087 -53.9746 -9.56489 -525.515 -448.437 -537.015 -40.9661 29.0059 -55.5091 -251.09 154.15
5005 1 -13.9206 -57.5631 -12.2687 913.759 992.7 979.908 38.5637 22.2055 60.8138 -854.586 149.737
5006 1 -11.3108 -60.1443 -8.63807 947.464 752.62 1214.31 31.4821 -81.2059 45.1527 -842.836 435.933
5007 1 -11.3633 -57.5257 -10.3715 1089.92 1042.83 1067.16 -12.7514 170.966 -45.4104 -838.879 309.879
5009 2 -15.3525 -59.7156 -8.91026 -283.862 -480.942 -523.898 56.0549 198.654 55.9004 -247.206 431.675
5011 2 -13.7986 -59.1262 -12.7754 -657.999 -115.962 -663.332 -60.9461 -82.7169 -37.5277 -230.816 576.73
5012 2 -11.0055 -58.9882 -9.67337 -464.055 -222.501 -609.785 -66.9221 -8.2153 -190.455 -244.603 487.078
5013 2 -12.8312 -57.5363 -11.0964 -264.272 -584.988 -471.724 -100.026 226.216 -58.85 -243.263 522.77
5014 2 -12.8621 -59.9714 -8.10648 -440.087 -467.169 -596.433 -102.521 -90.8325 47.6679 -249.15 289.903
5016 2 -11.1888 -56.4609 -9.17734 -537.592 -428.342 -412.941 58.1426 43.7897 145.565 -250.225 305.478
5102 1 -11.347 -55.3665 -8.02483 1020.7 1019.9 973.42 84.8386 -199.925 -3.42763 -840.6 379.125
5105 2 -15.5454 -55.5586 -8.13011 -465.926 -605.086 -486.308 -41.768 129.714 -46.812 -249.692 281.478
5107 2 -13.7025 -53.8545 -12.8262 -672.146 -587.129 -510.113 41.7857 -56.6607 10.8421 -246.635 186.893
5108 2 -10.9602 -53.8995 -8.63354 -450.802 -260.697 -530.478 30.8113 -0.124281 -166.917 -242.307 379.562
5110 2 -12.945 -55.4089 -7.55739 31.0365 -497.595 -512.327 83.4605 -166.156 -65.0079 -246.807 635.496
5111 2 -13.6884 -56.3665 -13.2533 -578.456 -306.126 -546.532 -144.664 124.028 -126.794 -239.383 472.917
5020 1 -14.3437 -59.8766 -7.6664 737.542 915.784 1087.22 40.3759 8.32353 -15.2178 -842.76 312.269
5109 2 -12.7674 -53.2218 -10.4268 -213.134 -529.09 -397.273 21.733 229.716 16.0059 -252.041 485.849
5010 2 -10.3752 -57.2249 -11.606 -524.345 -568.409 -352.908 14.9147 -168.314 -76.1416 -243.423 376.743
2704 1 -19.3059 -50.1421 -14.0096 872.077 859.741 1136.11 -121.237 -45.2981 -29.6664 -831.523 354.981
2807 2 -19.7521 -45.9799 -13.9071 -530.513 -410.233 -496.049 18.8298 -50.9864 -111.281 -251.285 239.839
114 2 -20.5127 -52.9586 -11.1076 -439.735 -568.811 -408.093 47.4585 -62.1411 -64.8603 -256.29 229.582
117 2 -23.0729 -53.0969 -10.4555 -294.427 -553.714 -372.313 -70.6565 137.939 35.4389 -253.244 359.064
302 1 -21.6178 -45.0669 -8.13119 1020.31 1140.3 1275.53 -86.3874 -181.42 126.507 -828.988 466.958
208 1 -23.9263 -50.255 -13.4711 868.566 884.399 989.168 -89.2731 -56.4305 -122.638 -841.54 302.438
109 1 -24.0429 -52.9223 -11.7349 864.572 941.181 810.407 161.716 10.2764 -183.246 -834.392 438.706
111 1 -21.5741 -52.9346 -9.85701 1138.44 945.761 941.407 34.6768 -22.4148 1.3641 -823.706 207.615
120 2 -21.4584 -51.4447 -9.22162 -527.876 -64.4038 -470.618 -47.8389 -56.5794 227.058 -247.746 602.231
205 1 -23.9417 -47.2949 -12.3134 962.259 788.891 1237.1 -42.5607 -106.53 -33.5043 -834.378 442.824
206 1 -21.5959 -49.9109 -8.61546 867.092 1020.56 1124.65 -131.057 -45.9808 61.9784 -833.112 346.06
207 1 -21.4152 -47.3844 -10.4396 1098.29 906.007 760.992 30.3274 127.978 105.383 -837.412 413.641
210 2 -20.2919 -47.14 -11.5331 -453.242 -546.896 -452.451 0.593866 -90.5791 -36.3582 -252.966 193.459
211 2 -23.903 -48.7848 -12.8823 -580.629 -438.716 -631.785 -57.1877 -75.3659 63.8169 -247.31 262.84
212 2 -21.3577 -48.845 -9.84251 -635.373 -420.809 -424.227 30.4487 -19.3265 -176.075 -243.78 377.127
213 2 -22.8633 -47.1694 -11.1687 -364.137 -559.765 -397.3 -44.2592 133.962 -32.4964 -253.706 309.458
214 2 -23.0794 -49.5979 -8.09707 -414.46 -503.399 -609.132 27.8505 28.8625 -9.18657 -249.906 183.229
215 2 -23.7698 -51.4194 -12.3193 -510.636 -194.715 -397.194 40.277 -41.8785 -227.944 -244.634 492.787
216 2 -21.2029 -46.3209 -9.2311 -467.745 -76.5999 -136.745 -107.5 -49.2208 344.334 -247.841 728.506
311 2 -23.8396 -46.2392 -13.5511 -578.404 -542.788 -370.654 -17.4608 97.8759 -183.261 -246.315 409.19
2605 1 -19.5386 -52.6903 -12.294 996.774 850.819 569.431 -98.3881 38.3811 25.0381 -835.285 420.586
2701 1 -19.3807 -47.154 -12.8672 1018.4 823.929 1105.07 26.9335 40.0171 77.6001 -825.129 295.351
2705 2 -20.3881 -49.7062 -7.60732 -254.003 -627.973 -558.5 110.972 15.7489 35.0258 -249.197 400.085
2707 2 -19.5389 -48.5908 -13.5908 -475.569 -167.192 -571.827 16.8003 -7.76159 135.404 -252.307 435.978
2711 2 -19.6121 -51.1808 -12.8267 -628.24 -361.022 -494.128 72.813 0.30874 -137.783 -249.583 355.546
220 1 -24.6013 -49.7999 -7.67523 886.063 823.318 807.39 37.9524 80.0991 -180.156 -838.78 355.144
310 2 -23.1458 -45.0827 -7.6055 -267.545 -440.761 -483.628 -65.5778 -302.177 45.0885 -248.104 576.367
227 2 -24.8212 -51.2474 -7.05663 -625.778 -248.776 -409.837 -13.7367 -12.7049 -120.57 -254.074 389.887
2806 2 -18.3134 -45.1751 -7.71526 -417.304 -585.497 -394.196 -38.8713 -93.711 12.1158 -252.079 253.037
2716 1 -18.8553 -49.7376 -7.06735 1153 813.347 633.926 32.4077 13.2219 92.8774 -840.542 487.904
2613 2 -18.0159 -52.9551 -11.8073 -366.345 -592.749 -566.125 -69.5944 105.158 -86.9279 -241.582 341.048
27570 2 -25.5742 -53.1011 -11.2858 -408.238 -523.871 -523.685 28.1211 -75.3887 6.8736 -248.338 181.422
27666 2 -25.504 -47.062 -11.7389 -232.539 -494.197 -630.103 -11.5472 -34.4287 6.40625 -244.488 355.774
209 2 -25.5935 -49.5983 -8.98241 -383.063 -478.08 -327.605 -38.1801 265.453 -54.6819 -242.419 492.05
5189 2 -15.3128 -50.347 -13.8506 -416.957 -458.939 -297.787 -3.22438 245.346 41.7229 -247.246 454.758
2710 2 -17.7483 -49.6273 -8.22888 -355.094 -649.165 -382.237 -23.4502 -126.383 30.1853 -243.616 362.676
2709 2 -17.8556 -46.9156 -12.3409 -386.702 -493.118 -517.162 62.4312 136.501 58.3399 -252.707 303.747
2798 1 -17.1263 -45.026 -8.75716 1000.38 1120.34 828.076 -27.8333 51.248 12.3378 -841.722 274.603
2610 2 -15.4391 -52.9134 -11.1881 -444.139 -595.29 -691.705 76.9815 131.165 -66.2419 -246.797 359.543
5200 1 -13.8054 -50.2128 -13.2122 1176.84 909.812 1078.08 94.4471 25.7018 3.53666 -838.374 288.905
2607 1 -16.8765 -52.8715 -10.6704 517.095 805.406 1119.85 16.3332 31.4874 108.182 -843.307 558.161
2616 2 -17.0439 -51.3615 -10.0668 -563.308 -234.268 -654.876 29.9424 22.4057 5.37112 -242.747 388.669
2702 1 -16.8474 -49.8579 -9.56955 1072.64 844.354 1046.99 18.6087 -42.145 82.7074 -838.412 271.674
2703 1 -16.8898 -47.2388 -11.1367 689.332 877.349 1019.66 -25.0543 -102.344 133.004 -839.593 410.776
2706 2 -15.3715 -47.2168 -11.5541 -453.939 -520.609 -625.383 -44.237 -22.5403 20.2143 -247.389 176.149
2708 2 -17.1543 -48.7292 -10.6377 -614.758 -437.018 -585.51 -80.1958 50.4447 -69.6289 -249.418 262.147
2712 2 -17.0824 -46.2297 -9.86853 -604.164 -353.731 -229.894 -14.7935 -4.98264 212.435 -243.349 495.158
5101 1 -13.8356 -52.8673 -11.6025 1041.38 1001.2 930.017 -59.7841 -21.9257 -6.41921 -830.553 147.747
5103 1 -11.3396 -52.814 -9.78134 907.89 962.401 1023.05 -12.4568 67.5729 36.3988 -838.572 167.614
5112 2 -11.3459 -51.324 -9.18748 -496.301 -302.495 -626.922 33.5865 17.1364 52.2419 -247.592 303.958
5197 1 -13.8491 -47.2136 -12.0973 819.096 959.239 1110.36 -79.7963 -279.126 59.6057 -841.539 571.972
5198 1 -11.5215 -49.8389 -8.59817 588.672 954.617 1168.55 26.9757 18.5313 -79.9924 -847.42 529.512
5199 1 -11.3386 -47.1775 -10.3611 957.451 986.966 939.413 25.6859 -10.1172 -42.8767 -847.566 97.6239
5201 2 -15.3127 -49.6662 -9.00271 -346.218 -542.538 -531.226 22.6466 208.084 97.3095 -242.468 443.048
5203 2 -13.5029 -48.7218 -12.7093 -464.727 -112.331 -562.158 -6.70871 23.8366 131.043 -244.381 470.497
5204 2 -11.3372 -48.6332 -9.67024 -535.076 -270.333 -552.139 21.1452 -47.711 -145.412 -242.228 382.755
5205 2 -12.8137 -46.9424 -10.9677 -490.264 -610.334 -645.183 21.909 118.462 -11.685 -245.089 252.518
5206 2 -12.9172 -49.7481 -7.93784 -748.226 -608.142 -692.692 57.2702 88.5557 -31.4131 -245.386 226.395
5207 2 -13.5693 -51.3378 -12.0429 -535.735 -203.683 -397.414 -95.7728 71.7936 -211.563 -248.994 510.606
5208 2 -10.9117 -46.1222 -9.24776 -501.034 -376.032 -353.23 -52.8863 12.3549 223.032 -243.447 420.802
5303 2 -13.7011 -46.1087 -13.2569 -543.89 -396.152 -461.747 5.97864 -1.25007 -185.01 -243.561 345.306
5212 1 -14.473 -49.737 -7.65265 777.635 738.421 931.584 44.4673 -58.8014 25.3031 -844.964 222.487
5297 2 -15.6723 -45.0015 -8.07199 -106.098 -606.767 -669.792 -4.10289 14.6269 -39.7888 -246.757 540.035
5294 1 -11.3027 -44.9994 -8.08328 926.982 1074.18 1089.24 39.7373 -203.589 -21.9952 -830.953 393.251
5302 2 -12.8614 -45.218 -7.73231 16.8738 -440.084 -591.98 6.00166 -27.7766 48.8825 -252.754 557.57
5308 1 -14.3647 -44.895 -7.13159 1007.89 711.281 1220.89 -153.216 -67.9103 -49.6855 -840.646 536.834
5202 2 -10.3492 -47.1274 -11.63 -479.995 -640.803 -491.972 -6.70204 -53.3651 -42.6424 -242.093 195.474
7697 2 -10.3117 -49.6926 -7.53057 -577.695 -648.108 -580.183 -46.274 128.315 13.7746 -238.339 247.339
2436 2 -22.1845 -61.3151 -3.09687 -554.671 -501.894 -317.033 -15.978 -67.7961 87.4132 -247.687 290.161
2531 2 -18.6074 -61.4314 -6.30873 -509.459 -105.218 -391.606 -66.6118 -29.0935 -298.104 -244.599 641.956
2524 1 -18.8752 -59.9785 -6.98423 1010.13 841.656 781.592 19.278 90.7681 -176.999 -846.912 402.403
2609 2 -20.4083 -55.4507 -6.7803 -542.613 -521.406 -594.846 -20.7862 161.85 25.6681 -255.401 293.505
27486 2 -25.5929 -58.4373 -3.97831 -377.77 -485.92 -319.712 32.5334 -195.064 -40.758 -248.709 379.018
124 1 -24.5562 -55.3511 -6.90503 858.592 1002.19 1186.47 33.1013 -188.133 26.7074 -825.415 438.921
2620 1 -18.9142 -55.295 -6.2876 826.575 871.004 1269.2 -3.23783 9.44447 69.3564 -828.429 439.264
25 1 -24.6304 -58.0325 -5.22153 996.477 1023.14 1004.81 -5.06894 42.5329 83.078 -836.95 163.61
26 1 -21.9505 -60.4255 -1.78537 1159.31 1021.92 781.281 -79.9248 149.277 -16.4035 -833.431 443.471
27 1 -21.9979 -57.8862 -3.62422 812.211 858.099 1149.74 -55.2373 32.6561 166.022 -837.52 442.253
30 2 -20.5315 -57.9798 -4.23832 -571.564 -518.161 -585.032 0.0501969 -102.672 -18.6201 -254.821 190.834
31 2 -24.9197 -58.9287 -6.58374 -502.132 -512.569 -122.282 29.4822 -19.4063 125.724 -246.393 446.672
32 2 -22.0928 -58.9019 -2.40689 -553.494 -364.345 -413.628 -63.0319 58.4091 -297.938 -244.819 563.329
33 2 -23.1128 -58.1508 -4.77133 -404.578 -581.082 -453.574 38.7969 132.979 -49.7291 -249.48 299.818
34 2 -23.0227 -60.6493 -0.634894 -491.696 -611.606 -302.277 48.8307 -140.36 -31.23 -254.816 377.031
36 2 -22.2606 -56.3694 -3.09502 -571.601 -433.693 -612.434 -32.9839 -37.9198 46.307 -245.438 200.817
122 1 -22.027 -54.9325 -2.51326 1260.02 557.337 947.956 45.1428 8.06715 115.733 -841.452 646.803
127 2 -24.673 -53.857 -6.21071 -573.215 -274.057 -469.044 -93.9831 -21.9599 122.685 -257.95 377.205
128 2 -22.2222 -53.8386 -3.61932 -611.261 -454.185 -503.918 -37.2174 -31.58 -93.4529 -251.669 229.526
130 2 -23.0539 -54.7282 -1.25611 -399.524 -546.423 -264.421 2.05218 -176.943 -52.4321 -248.325 402.325
131 2 -24.8897 -56.5328 -5.75557 -539.125 -212.524 -339.506 56.95 -82.0032 -425.197 -241.674 808.455
2521 1 -19.0202 -57.8857 -4.62143 801.543 1107.15 1156.89 -54.8537 42.3717 122.747 -827.736 413.138
2525 2 -20.4792 -60.7211 -1.15048 -200.297 -490.069 -386.727 -46.2986 229.099 2.89577 -249.204 478.139
2527 2 -18.653 -58.9381 -5.84515 -558.972 -414.8 -494.177 -52.4678 -52.2454 95.0631 -247.74 243.312
2621 2 -20.5012 -54.8444 -1.89944 -313.711 -505.871 -459.949 -13.475 188.627 8.84932 -241.471 371.12
2623 2 -18.6445 -53.8127 -5.66903 -522.097 -26.2157 -581.997 31.3656 29.9018 148.084 -247.084 592.124
2627 2 -18.6338 -56.3769 -5.04912 -474.707 -222.811 -246.436 -9.57638 15.8499 -276.03 -251.553 536.344
2632 1 -19.4932 -54.957 -0.649486 912.845 867.994 990.465 50.9119 -35.3947 -9.10773 -846.11 152.647
2626 2 -17.987 -54.8741 -1.15913 -541.458 -559.784 -572.909 -35.3841 -39.9219 19.1842 -248.117 101.932
2529 2 -18.0859 -58.3096 -3.29945 -205.773 -506.658 -256.625 -8.6552 238.437 -81.5778 -239.753 518.231
136 1 -24.1206 -54.892 -0.0694543 1244.81 1066.64 739.077 -84.8133 -28.0064 -111.626 -846.039 508.644
5027 2 -14.6876 -61.3308 -7.00537 -618.834 -133.397 -541.356 -56.2174 52.5553 -158.898 -241.676 545.486
5116 1 -14.4655 -55.2645 -7.00059 900.339 846.166 1169.31 10.7802 -151.504 -4.00185 -836.167 398.881
7428 2 -12.0196 -61.436 -3.13417 -629.146 -373.193 -551.179 66.2626 92.2743 107.645 -247.544 353.713
2530 2 -17.8412 -60.6229 -0.501856 -311.947 -581.047 -565.693 18.1267 -63.6302 6.20913 -247.217 285.948
2522 1 -16.3649 -60.5978 -1.10429 802.409 907.727 959.814 -13.7407 -65.7773 107.246 -847.593 259.504
2523 1 -16.5314 -58.0779 -2.81664 1169.75 809.049 828.609 91.4879 -42.3431 298.543 -843.795 649.081
2526 2 -15.5676 -58.2291 -4.11904 -324.309 -563.022 -362.72 19.2835 -153.588 -59.3252 -248.489 362.948
2528 2 -16.1942 -59.1669 -1.77755 -693.957 -632.548 -701.803 -13.2024 -33.2501 14.7372 -242.037 93.838
2532 2 -16.3885 -56.5714 -2.27148 -597.931 -253.519 -593.064 -13.8031 -71.1231 -18.3119 -246.121 365.678
2618 1 -16.5264 -55.081 -1.70504 924.596 944.717 1115.98 -34.6038 127.662 -61.0889 -847.312 311.229
2624 2 -16.2469 -53.8032 -2.68511 -565.386 -207.148 -523.9 19.4113 -3.61944 -167.31 -245.505 447.595
5017 1 -14.5633 -57.8038 -5.2991 1250.31 901.315 776.133 -35.7191 47.3948 -7.80858 -837.299 438.071
5018 1 -11.8097 -60.4301 -1.92048 952.241 1071.21 782.925 -73.1548 133.958 -98.2147 -849.554 402.235
5019 1 -11.9187 -57.7647 -3.59379 960.353 701.272 1287.97 6.05653 -147.77 -20.4226 -847.11 571.145
5023 2 -14.6488 -58.7343 -6.56421 -634.352 -417.048 -507.603 -82.3264 -135.073 72.8876 -247.901 356.017
5024 2 -12.1177 -58.9052 -2.45248 -520.055 -254.56 -463.407 -1.63516 -41.8744 -222.002 -237.473 460.196
5025 2 -12.9617 -58.0331 -4.77106 -47.8265 -526.414 -580.357 -62.4091 155.462 -59.9393 -237.037 593.92
5026 2 -12.7398 -60.8067 -0.7154 -587.821 -599.982 -504.115 -24.312 -92.5911 115.026 -239.792 274.515
5028 2 -12.217 -56.3661 -2.96006 -445.683 -517.729 -608.771 8.49241 -10.0578 94.0592 -247.413 217.025
5114 1 -11.9463 -54.8725 -2.40579 1046.13 882.815 1091.13 62.5865 98.8418 15.0708 -851.016 278.905
5117 2 -15.3098 -55.0173 -0.592757 -396.304 -652.243 -527.45 79.9112 112.283 38.6864 -232.46 332.579
5119 2 -14.6224 -53.7146 -6.59712 -573.043 -312.34 -633.308 4.00196 -11.6581 -14.2179 -248.137 297.273
5120 2 -12.2145 -53.7828 -3.55645 -584.397 -304.688 -525.295 -26.6178 25.6927 -147.372 -240.067 366.688
5122 2 -12.8298 -54.6021 -1.10588 -638.322 -589.521 -468.119 -53.4971 -52.7352 46.4472 -238.118 215.512
5123 2 -14.7177 -56.2928 -5.75968 -517.713 -358.437 -421.489 58.3584 -38.5117 -228.892 -251.398 437.199
5022 2 -10.344 -57.8954 -4.12046 -181.168 -458.978 -564.509 -118.819 -121.845 40.9324 -248.609 457.769
7601 2 -10.3218 -55.5868 -6.84991 -383.437 -670.704 -646.688 -11.0213 101.392 24.9114 -241.23 330.556
7517 2 -10.3187 -60.4831 -1.3122 -436.92 -615.462 -577.466 -24.2582 146.838 -57.8738 -240.526 320.99