ITEM: TIMESTEP
1340000
ITEM: NUMBER OF ATOMS
29952
ITEM: BOX BOUNDS pp pp pp
-2.5164588948708733e+01 3.5149883297801296e+01
-1.0378385744677945e+02 1.1376915178877945e+02
-2.0943485494817040e+01 3.4811338639539180e+01
ITEM: ATOMS id type x y z v_StrAtomXX v_StrAtomYY v_StrAtomZZ v_StrAtomXY v_StrAtomXZ v_StrAtomYZ c_PEAtom v_VMS
29404 1 -20.4361 -94.3023 -15.6652 122.897 -246.29 -24.9983 111.778 -121.189 78.4757 -240.079 451.208
7016 2 -20.8628 -93.7703 -17.1692 -93.9808 81.6931 109.307 -113.559 113.461 5.38473 -132.421 337.445
24293 2 -21.1849 -92.8309 -15.2256 12.4696 147.004 -14.5602 -127.039 82.0741 -84.1751 -148.759 335.184
6997 1 -21.0249 -92.2846 -16.7794 94.7406 -207.854 -77.6949 298.997 -261.701 152.088 -256.289 782.415
4794 2 -18.8289 -94.0517 -15.4844 -33.2611 98.7383 -26.8784 -49.7554 -9.52903 -2.4791 -150.864 156.012
24379 2 -16.348 -92.7865 -15.368 69.3944 119.633 -125.902 17.638 -98.0039 83.8761 -137.526 318.323
9507 1 -17.3292 -93.9269 -15.0003 -28.6646 -218.184 184.426 56.8783 156.978 -65.5793 -242.192 467.165
21984 2 25.6759 -93.892 -19.4545 -23.3808 145.435 4.79668 77.0946 -14.5958 20.8002 -76.8648 210.484
2036 2 25.8467 -92.4738 -17.1105 13.4394 -62.161 35.4678 -11.2511 -37.1645 -40.3313 -99.337 131.413
24553 1 25.7609 -92.5175 -18.7773 -40.4766 100.945 -157.008 -46.1324 103.598 22.3192 -345.627 300.227
24779 2 27.1051 -91.7189 -19.2789 36.7407 -165.556 163.56 -15.4866 -75.989 -33.5837 -109.392 322.627
29558 1 25.4079 -91.7383 -15.8005 -158.165 334.052 -151.822 71.9135 44.6164 80.5974 -316.055 529.311
1988 2 -19.5694 -91.5553 -16.7134 -15.6844 125.052 34.6024 -104.333 108.196 -75.8766 -139.084 316.71
27153 2 -22.0792 -91.1492 -16.9873 5.49146 66.0358 47.3368 -155.058 132.926 -113.963 -136.495 408.635
1996 1 -19.2191 -90.3799 -15.6653 -137.799 -375.315 9.55049 43.2097 -302.307 97.7683 -246.172 649.283
29458 2 -24.2781 -89.906 -17.5181 105.914 -74.1265 136.423 -121.195 122.456 -156.268 -131.098 448.495
2390 1 -22.8081 -89.6029 -16.9261 -175.588 -35.6271 -215.741 200.542 -222.803 274.068 -259.206 722.314
9587 2 -19.5107 -89.026 -16.356 62.3787 133.483 91.0416 -14.5805 181.728 -125.557 -137.794 388.389
29892 2 -23.2683 -88.943 -15.5597 128.201 -10.2961 122.395 -85.3709 77.5346 -85.176 -142.278 282.976
29586 2 -21.7923 -88.4987 -17.5162 21.687 27.5361 180.914 -35.294 119.479 -200.252 -135.895 437.404
9698 1 -20.2792 -87.8754 -17.2273 -24.1659 -116.87 -420.007 -22.7531 -308.31 409.027 -264.473 957.715
24802 2 -19.6169 -87.3656 -18.5443 -23.5107 -14.1609 293.85 9.09563 124.911 -242.655 -127.902 567.044
4598 1 -23.8215 -87.462 -15.0209 -291.267 96.7011 -401.318 63.8043 -154.128 163.933 -251.636 607.806
7026 2 -20.3606 -86.63 -16.1267 80.5672 -3.00212 250.897 17.8268 166.583 -150.77 -141.618 450.142
29408 2 -24.2083 -86.4614 -16.183 158.944 -73.5977 240.412 -20.9148 94.8557 -125.902 -140.054 394.356
7203 1 -19.1101 -87.3725 -20.1307 -31.3661 100.825 -525.191 54.5838 -143.392 328.852 -297.477 849.511
2387 2 -25.3029 -91.2946 -15.5287 146.349 -34.3363 34.484 -99.3231 52.1226 -93.4053 -130.535 298.107
2362 2 -20.4817 -87.3205 -21.0884 -74.0405 -54.4939 256.539 4.95415 106.566 -97.1638 -127.578 407.023
27392 2 -22.6201 -85.739 34.7162 109.702 -123.559 263.955 120.161 92.2644 -63.1798 -147.012 441.606
7200 2 -18.3662 -85.9377 -20.3373 128.029 -153.33 225.933 9.85406 64.7244 -142.579 -125.805 436.05
27010 2 -17.653 -90.6246 -15.1941 58.9 202.556 -79.3751 55.279 59.7046 28.7273 -145.234 286.283
12669 2 -18.2297 -88.6651 -20.3114 31.4742 23.0031 249.065 -106.08 16.791 -113.787 -100.481 350.297
17178 2 9.11369 -85.7877 -14.8702 166.479 -209.049 143.936 -26.3534 -79.8303 -47.0114 -120.901 401.118
24584 2 16.3365 -87.7975 -17.0978 210.34 -246.488 80.3315 -11.8047 -13.0484 -28.1605 -111.375 411.716
22086 2 14.6511 -87.674 -19.0319 149.615 -284.761 150.813 41.5799 -13.782 9.85294 -107.927 441.873
19480 1 14.9725 -87.0259 -17.6022 -425.058 625.828 -309.809 -25.1125 81.5553 -8.53765 -303.587 1009.25
22101 2 13.6354 -86.5877 -16.6723 241.099 -336.063 152.185 -6.75967 -108.279 -2.48379 -115.22 570.116
27089 2 16.2285 -85.8487 -14.7585 316.199 -390.173 210.701 -38.198 -74.6651 6.74235 -125.588 675.877
25055 2 21.3631 -90.3924 -16.5766 167.252 -204.461 17.7536 -28.1342 -37.5694 -9.97251 -105.223 334.45
24796 1 22.8891 -90.212 -16.1338 -393.565 535.435 -138.822 151.282 107.99 61.08 -305.272 897.839
19527 1 20.3855 -89.1747 -16.1029 -452.269 463.505 -54.6738 175.196 18.0033 66.6958 -310.348 859.66
22008 2 18.9864 -88.9877 -16.9271 226.106 -205.373 35.5638 -63.1549 -0.653603 -29.7056 -106.14 393.547
22077 2 21.4186 -87.8351 -16.2905 240.442 -242.645 88.1989 -138.785 -41.1066 -52.0027 -120.966 503.955
19586 1 17.9655 -87.8118 -17.1539 -499.664 509.009 -185.768 137.736 9.18832 54.9648 -308.145 930.356
14975 2 18.3308 -87.0302 -15.7758 286.861 -285.047 134.342 -92.4474 -22.669 -14.662 -121.213 539.388
22171 2 18.4555 -86.8257 -18.3082 260.504 -321.565 170.564 -73.7228 -38.9354 -13.8896 -118.549 562.116
22275 1 22.5146 -86.6633 -16.0537 -515.001 422.994 -280.277 250.213 74.7414 67.8436 -288.686 965.995
19772 2 22.1634 -85.6641 -17.2147 250.415 -244.557 206.775 -98.0624 -55.6672 -52.3446 -122.687 521.217
24766 2 22.3272 -85.8099 -14.7667 265.576 -217.728 147.851 -107.563 -17.795 7.24421 -125.102 475.775
2035 2 23.8333 -91.468 -15.881 119.385 -178.642 39.5536 -26.8093 -39.1984 -22.9095 -107.861 282.386
27478 2 24.5292 -91.3869 -18.9477 83.0922 -206.893 137.96 14.8538 -17.0691 -23.988 -102.589 325.999
24589 1 28.193 -91.0216 -20.1766 -28.7602 415.168 -449.537 38.9602 60.0247 51.7042 -290.44 764.397
17375 2 25.9469 -90.1996 -16.1766 167.38 -282.815 172.836 -23.271 -32.7403 -40.455 -121.217 463.586
20053 1 24.2579 -89.8222 -18.8544 -335.544 650.652 -472.092 145.792 53.8276 121.68 -306.539 1114.79
22209 2 23.5518 -89.4578 -17.4283 193.757 -312.924 173.96 -97.5789 -58.4565 -39.9365 -117.074 539.155
27197 2 28.2671 -89.5591 -17.412 194.492 -285.9 252.371 32.5493 -10.7476 -14.1991 -124.478 515.811
26997 2 23.3919 -89.2645 -20.1464 179.835 -314.592 268.023 -76.9058 14.9671 -71.4852 -113.712 574.094
29747 2 25.8032 -89.3264 -18.6147 204.096 -330.545 248.16 -54.7053 -56.4952 -49.7342 -121.42 580.788
21997 1 26.6861 -89.2935 -17.2284 -427.339 607.605 -444.08 4.0422 102.238 24.1239 -287.375 1059.18
17203 2 26.5409 -87.8494 -16.6934 274.564 -278.104 203.913 -13.6543 -30.2586 -4.20637 -123.713 524.162
19964 2 24.1407 -86.9327 -15.9627 290.541 -233.759 143.232 -109.571 -30.1732 -24.7962 -121.835 509.853
22273 1 25.767 -86.9727 -15.5968 -636.82 491.615 -322.182 116.241 31.8437 27.4982 -290.501 1031.1
24786 2 26.6596 -85.579 -15.4334 315.666 -220.225 168.887 -51.7027 -30.1131 -39.8675 -120.054 495.554
22164 2 28.7447 -85.5533 -17.1059 239.424 -214.556 214.458 -13.6266 -4.0579 -33.6977 -126.79 446.542
2216 2 33.5275 -90.7665 -17.9382 110.962 -77.2354 143.364 -71.3836 180.518 -103.853 -118.512 433.554
6976 1 34.6695 -90.4055 -16.8732 -280.187 175.875 -222.696 198.77 -268.981 248.129 -276.984 839.86
27104 2 29.4148 -90.3074 -19.4145 63.2433 -231.375 272.331 23.3407 54.1062 -11.6888 -125.646 450.495
29215 2 29.5147 -87.6839 -18.5951 193.237 -239.296 290.678 65.346 29.5658 3.80837 -131.168 504.185
22088 2 31.1702 -89.4421 -17.6708 177.514 -215.183 239.549 7.51024 106.659 -67.8412 -127.093 480.131
27015 1 29.6154 -89.2481 -18.2187 -330.434 528.295 -543.465 -107.29 -106.646 14.9308 -279.028 1017.38
27003 1 32.6831 -89.3373 -17.8074 -331.85 348.962 -436.41 55.0652 -267.66 256.043 -277.638 983.016
19205 2 33.7003 -89.1051 -16.536 180.146 -144.212 172.719 -78.0725 115.358 -138.926 -133.475 467.936
27173 2 33.0808 -88.1296 -18.8263 124.616 -207.343 305.717 21.4802 91.1765 -123.791 -134.676 524.794
26883 1 33.7377 -86.7926 -19.4955 -272.521 423.684 -696.204 -84.3739 -115.234 170.21 -254.057 1052.28
19712 2 31.1096 -86.3505 -17.2631 175.183 -219.506 272.669 17.5736 -9.10832 -44.2961 -136.584 459.153
22191 1 29.8005 -86.1874 -18.1666 -430.012 420.426 -550.262 -58.1479 -10.6422 34.4204 -272.009 924.125
4700 2 34.7504 -86.1122 -18.4298 180.992 -166.788 311.699 32.8096 72.6072 -118.478 -140.205 494.619
24783 1 31.9866 -86.0571 -15.8475 -403.587 379.678 -531.251 8.21637 8.58602 120.689 -260.985 879.726
4481 2 33.5847 -85.8191 -16.1455 219.434 -158.723 266.896 -14.8049 44.57 -76.164 -138.249 432.693
22398 2 31.5828 -87.3224 -14.969 209.903 -181.615 224.057 -30.7043 -2.02852 -73.0358 -134.966 421.748
21972 2 34.3391 -87.0617 -20.9559 144.42 -245.015 346.873 57.8217 40.1727 -15.0303 -141.644 535.76
27099 1 -19.8885 -85.1392 -15.6219 -242.945 181.22 -594.704 1.51178 -312.813 304.262 -246.448 1012
24306 2 -19.8367 -84.356 -17.0675 81.1933 -151.417 392.53 41.7722 129.65 -185.752 -142.11 618.573
22489 1 -22.6534 -84.3305 -20.4199 -296.167 348.019 -562.787 -186.165 -87.1477 200.093 -229.182 951.148
24774 2 -21.9203 -84.1573 -19.0036 90.9407 -186.945 374.843 56.5974 53.3648 -140.498 -149.71 560.434
21893 2 -24.9111 -83.9667 -16.936 199.311 -173.429 297.459 35.7837 49.3898 -81.3177 -140.93 464.918
7109 2 -19.5066 -83.7655 -19.4865 125.028 -202.545 289.273 101.716 113.898 -150.784 -147.217 571.18
14942 1 -20.5287 -83.6215 -18.2541 -166.306 376.116 -806.107 -127.686 -181.879 304.253 -241.499 1215.1
2397 2 -24.0795 -83.6124 -20.7221 261.481 -187.619 251.66 93.3678 8.68634 -69.5964 -150.347 488.146
14959 2 -23.038 -82.6969 -15.5975 152.426 -183.845 313.083 -14.5078 31.7124 -62.2588 -141.653 456.278
29403 1 -24.5067 -82.4707 -16.344 -328.552 381.229 -653.986 -43.7351 -63.4314 89.8045 -254.011 939.514
4712 2 -20.7392 -82.0403 -17.9736 127.542 -182.299 385.049 84.2277 54.5614 -77.8469 -144.501 538.972
29603 2 -21.2332 -81.0887 -20.0728 128.192 -171.781 313.824 94.2488 32.9341 -63.7901 -151.424 471.421
15248 2 -24.2733 -81.2452 -17.3361 151.51 -180.914 337.946 12.3697 10.8951 -39.0578 -139.642 461.119
7478 1 -20.877 -80.6025 -18.5472 -349.509 319.564 -709.618 -215.289 -86.3211 40.5516 -250.573 992.276
1904 2 -19.5187 -79.8173 -18.4391 182.071 -139.954 325.086 149.75 63.0055 -1.6838 -139.542 499.4
25049 2 -22.18 -79.8342 -18.0765 169.394 -145.774 332.735 46.1676 -6.91335 6.32181 -137.1 429.125
2222 1 -23.6969 -79.7242 -17.5458 -271.726 293.118 -648.828 3.86319 -23.0253 21.1876 -263.542 822.946
2497 1 -18.3488 -84.3235 -20.4795 -385.671 417.487 -447.613 -177.646 -165.687 273.073 -259.138 1048.52
9677 2 -17.0461 -83.4129 -20.0376 237.396 -229.692 215.39 115.191 90.2603 -124.155 -133.951 564.685
14870 1 -16.2146 -82.0801 -19.6939 -479.136 493.058 -476.154 -229.649 -220.477 211.658 -262.297 1175.04
7102 2 -14.9306 -81.9407 -18.6725 243.082 -255.164 196.069 95.0651 104.183 -93.46 -133.93 559.388
10065 2 -14.286 -81.4715 -16.0449 223.919 -181.267 177.114 116.57 23.2688 -126.963 -135.681 488.006
29845 1 -13.8008 -81.5161 -17.6381 -500.127 508.313 -380.636 -190.305 -93.0621 155.041 -264.381 1057.11
4872 2 -17.3272 -80.9683 -19.106 202.323 -204.234 278.907 148.2 99.1058 -69.5927 -141.775 558.726
2038 2 -13.128 -80.0403 -17.7969 270.893 -264.578 190.445 68.361 45.5759 -56.8543 -138.388 529.218
4705 1 -17.9338 -79.5438 -18.5303 -340.998 289.641 -627.582 -256.275 -150.887 29.254 -252.837 963.57
2324 2 -10.1226 -83.0734 -19.4644 86.8959 -257.75 225.956 48.7077 -107.609 -41.8995 -115.843 482.875
29493 2 -12.4188 -82.2904 -18.0062 219.434 -256.718 163.59 81.3639 -13.4883 -64.7407 -128.649 486.034
2391 1 -10.9045 -81.9882 -18.4672 -371.654 618.294 -417.108 -125.415 109.829 56.6783 -282.733 1058.33
4813 1 -9.48558 -82.0245 -20.5503 -294.135 726.186 -632.792 -144.116 266.857 56.3487 -293.153 1336.7
9811 2 -8.01666 -81.5535 -20.0569 172.525 -363.467 319.401 91.7158 -73.1526 -12.4505 -118.124 655.24
15212 2 -9.99523 -81.2802 -17.3223 212.454 -311.206 228.721 87.4259 21.0309 -34.9564 -126.923 557.607
27092 2 -10.5963 -80.9921 -19.8182 222.777 -354.499 311.333 59.5557 -104.729 -16.6178 -126.3 660.746
4921 1 -9.42687 -79.8535 -16.9693 -568.668 638.969 -476.035 -242.427 -89.749 66.7088 -273.956 1252.57
12129 2 -3.13036 -82.3008 -20.0087 315.129 -309.23 218.278 10.1658 55.4094 -27.7999 -88.8061 592.093
9904 1 -3.7985 -81.2717 -19.0821 -593.571 824.412 -510.451 -62.5935 -132.689 90.9248 -334.187 1410.35
29863 2 -5.45401 -81.2177 -19.1241 248.119 -392.442 286.76 70.543 62.8051 -26.3399 -106.45 682.208
7236 2 -3.10222 -81.1011 -17.6401 306.818 -447.284 225.248 -21.8791 41.8472 -80.6809 -103.087 734.867
12279 1 -6.55499 -80.8893 -20.1816 -425.084 784.09 -671.977 -188.973 -9.99811 -30.9417 -303.413 1389.93
9687 1 -2.48428 -80.0196 -16.5812 -675.075 1012.16 -562.181 153.237 -65.0304 181.935 -310.442 1688.63
4796 2 -1.12602 -80.263 -15.7506 351.738 -479.278 251.936 -103.207 -7.33668 -73.3959 -113.348 816.02
19486 2 2.89581 -84.3519 -20.6009 90.6642 -287.172 157.487 14.7587 21.8316 -53.3267 -114.043 427.887
17461 1 4.54268 -84.2377 -20.2938 -90.324 637.121 -431.169 129.095 -31.1847 67.404 -289.953 979.715
17291 2 4.72366 -83.7674 -18.7622 67.0923 -367.853 323.318 -45.081 51.9099 -17.5363 -122.18 617.557
4338 2 0.625372 -83.2377 -15.8331 221.955 -337.504 174.192 -27.3583 -52.0879 -70.4075 -104.186 560.188
22379 2 3.09162 -82.6109 -16.8265 176.079 -405.469 320.565 -57.0413 -1.49544 -60.7366 -121.535 681.128
20152 1 4.57912 -82.6125 -17.5795 -300.988 792.77 -738.181 111.652 -129.897 45.5284 -281.691 1399.95
17344 1 1.54413 -82.1664 -16.5361 -485.965 852.657 -547.183 155.955 120.672 155.979 -305.254 1437.79
12204 2 1.01404 -81.6694 -18.0071 263.949 -451.137 281.489 -113.948 -41.14 -65.6741 -112.198 762.343
9790 2 1.7058 -82.0212 -20.5847 205.217 -390.901 247.483 -125.407 36.572 -25.426 -117.057 659.902
17199 1 1.26377 -80.9586 -19.4521 -534.02 852.793 -566.261 310.684 -37.1799 122.904 -302.613 1519.22
4992 2 1.32742 -80.8461 -15.4323 310.51 -398.383 229.076 -89.1871 -55.2009 -52.0623 -118.49 701.833
12465 2 2.52367 -80.0412 -19.1244 204.777 -353.254 297.011 -96.8799 26.3733 -56.1719 -123.095 641.158
14780 2 0.0901577 -80.0237 -19.8548 355.204 -481.769 264.556 -152.457 28.0623 -88.8439 -113.109 853.605
22178 1 3.90896 -79.6376 -18.3798 -347.664 600.379 -639.56 100.158 -72.2799 86.2304 -283.499 1152.73
19968 2 4.59164 -81.1785 -18.3229 174.267 -347.319 341.672 -49.1873 60.2004 -30.0997 -128.472 638.938
19694 1 9.91857 -84.5505 -15.6447 -511.19 617.416 -376.547 137.793 214.227 91.8732 -283.668 1166.14
29564 2 9.73387 -83.8528 -17.1794 242.289 -331.123 253.267 -75.7277 -87.7529 -15.8367 -122.376 613.412
17096 2 5.59476 -82.7089 -16.336 213.972 -399.395 318.925 -40.1881 57.5032 -58.5461 -130.341 690.404
17006 1 10.2886 -82.4945 -17.9324 -490.796 614.36 -498.857 145.977 173.128 37.0501 -287.919 1178.26
14595 1 6.02059 -82.181 -14.9012 -491.08 737.126 -456.558 107.416 23.6239 161.202 -259.927 1257.59
12116 2 9.38116 -81.1889 -18.1958 247.016 -321.7 237.857 -18.9958 -29.4046 -54.4764 -126.377 575.232
14588 2 9.81942 -80.5732 -15.296 262.198 -283.917 207.13 28.0985 -49.4079 -104.4 -134.293 559.992
12490 2 7.60788 -80.0667 -19.7092 311.041 -350.054 271.377 13.1839 76.9746 -65.0859 -122.271 665.885
19850 1 8.56469 -79.8431 -18.4131 -583.449 693.931 -500.718 -24.5972 -41.8598 182.504 -282.058 1280.57
22117 1 8.36098 -79.9052 -15.466 -562.222 534.337 -411.03 -6.78822 134.789 183.209 -267.682 1102.2
12464 2 7.88458 -79.7063 -16.9813 297.988 -316.435 224.643 -7.97935 -23.3482 -98.0563 -130.162 607.043
12012 2 7.21012 -81.0527 -14.9389 260.281 -301.423 209.036 -25.4824 -64.763 -96.7545 -137.484 576.166
24487 2 9.24349 -83.3654 -14.7426 270.586 -324.541 172.732 -46.0154 -66.9571 -90.0143 -135.85 591.291
9708 2 15.4978 -85.481 -17.6283 257.569 -413.103 196.621 -8.36184 -55.4219 0.853451 -126.016 649.666
17384 2 11.016 -82.9402 -19.3055 262.364 -315.621 251.417 -81.5668 -93.1187 39.7743 -117.492 615.287
19779 1 12.9832 -85.1778 -16.1821 -673.776 793.462 -396.935 139.887 230.519 -15.0417 -292.7 1429
17465 2 11.4446 -85.0157 -15.7002 324.02 -342.191 186.852 -78.7885 -120.059 -19.343 -121.366 658.982
12511 2 13.9035 -84.6798 -14.8829 355.67 -406.948 228.578 -57.6086 -94.6307 8.21016 -125.295 733.376
20080 1 16.0955 -84.6699 -20.5628 -530.474 722.871 -509.612 -13.1003 51.5174 11.8769 -289.776 1246.62
12561 2 13.4358 -84.1929 -17.3897 329.42 -392.534 213.166 -89.5411 -98.4158 -2.86592 -121.875 709.885
19792 1 14.932 -84.007 -17.9276 -608.79 748.013 -426.931 75.2715 137.806 48.1324 -285.82 1306.97
22116 2 15.2598 -83.8537 -19.473 272.025 -332.821 225.767 -25.0777 -25.9193 -40.0037 -123.079 590.51
12594 2 15.8628 -82.9108 -17.2563 299.423 -296.914 216.741 -24.8976 -69.2801 -37.8026 -123.655 577.663
19368 2 11.3507 -81.8657 -16.8538 286.371 -275.465 201.14 -64.8567 -91.3522 -65.6504 -125.932 570.634
22372 1 11.4042 -80.8972 -15.5551 -572.734 534.323 -413.762 8.8429 81.8125 202.257 -276.851 1103.58
17177 2 16.0106 -80.1837 -19.6095 257.401 -217.181 171.221 -72.4084 -32.2805 -51.9097 -123.227 467.648
4791 1 11.3912 -83.5751 -20.7125 -532.366 625.083 -382.017 105.56 131.171 -132.293 -303.277 1151.44
19598 1 18.6396 -85.2674 -18.7627 -576.558 715.259 -485.843 82.3215 74.1944 38.4332 -285.065 1265.35
19602 2 17.5972 -85.034 -19.9672 262.129 -374.011 258.792 -19.3765 -60.5561 0.791687 -123.937 643.966
22283 2 20.2206 -84.8 -18.7411 285.436 -330.02 248.058 -44.549 -59.072 -18.3737 -124.381 612.056
19489 1 21.309 -84.3876 -17.6198 -558.319 602.212 -442.819 64.5292 126.793 88.6036 -283.541 1144.73
17265 2 18.1146 -84.2076 -17.6505 285.779 -370.579 213.452 -14.4808 -30.9337 -37.8261 -129.176 629.569
22582 2 20.5899 -83.7763 -16.241 283.996 -315.702 228.289 -21.6529 -37.9581 -14.3391 -128.289 579.378
22199 2 22.475 -83.2932 -18.0293 236.717 -294.173 218.18 5.73029 -71.6888 -27.4706 -125.453 538.635
17355 1 19.4462 -83.4653 -15.145 -597.924 622.193 -461.157 31.09 62.4411 -28.7621 -276.102 1165.16
20041 1 17.4168 -82.7469 -17.1363 -524.22 579.992 -465.43 22.1809 81.2282 74.9225 -282.795 1093.59
19685 2 18.2465 -82.5827 -15.8004 273.187 -289.394 248.446 -12.3859 -35.9723 5.43181 -126.938 554.637
22386 2 18.0688 -81.7588 -18.1876 237.457 -233.762 214.388 -39.8891 -34.2003 -66.4176 -124.211 482.934
24954 2 20.3573 -81.7407 -19.365 301.216 -300.663 211.866 -19.1319 -39.3605 -66.9522 -124.719 579.359
22192 1 18.8483 -81.4359 -19.5242 -545.198 498.657 -392.216 97.8256 83.4105 135.625 -286.56 1028.64
24784 1 21.8097 -81.0506 -19.2201 -548.899 563.88 -442.408 16.9791 25.6204 95.5884 -285.679 1077.67
17760 2 21.9854 -80.5451 -17.7084 275.132 -270.875 219.552 16.2575 -29.318 -6.4202 -123.092 523.794
29693 2 18.5348 -79.9432 -19.9043 279.88 -238.498 178.551 -90.6623 -46.2894 -54.8351 -123.782 516.298
24694 2 21.6188 -79.7255 -20.0773 279.243 -265.176 228.618 -18.9301 -14.5594 -51.4042 -123.103 530.124
22399 2 23.0836 -81.8862 -19.754 250.417 -269.766 229.023 -17.1003 -26.1347 -15.5802 -125.79 513.395
22408 1 28.2579 -85.1906 -15.5504 -551.878 416.834 -359.333 67.3392 51.5394 92.1655 -285.586 914.337
27622 2 23.8043 -84.441 -20.0034 222.417 -256.62 233.192 -72.3797 -62.7287 36.6771 -123.689 516.054
4581 2 28.4677 -83.6391 -15.2915 259.644 -190.487 170.819 -90.699 -31.2471 -35.6301 -122.062 449.379
22143 1 23.7513 -83.1509 -19.0457 -502.903 535.185 -410.254 52.8071 113.599 -30.0535 -285.964 1019.72
29801 2 27.4702 -82.6117 -19.7541 273.462 -232.433 217.445 -56.2956 -23.1157 -0.357255 -123.567 491.772
24582 2 25.2168 -82.7421 -18.5262 287.026 -262.4 182.776 -29.6041 -33.242 19.7635 -122.725 512.421
22371 1 28.6198 -82.2031 -15.9926 -517.018 398.904 -352.181 265.212 20.6457 28.7488 -291.557 964.302
24866 1 26.6958 -82.0757 -18.499 -574.232 491.949 -396.517 119.948 29.9187 -15.2232 -289.841 1012.62
19798 2 27.5445 -82.1978 -17.1389 273.754 -224.985 179.209 -110.261 3.77466 -17.9788 -121.445 498.007
24794 1 23.3549 -80.022 -17.1152 -489.363 482.156 -400.749 -85.4255 69.0287 -2.95645 -286.436 949.645
22572 2 23.9316 -81.0309 -16.0332 240.76 -292.747 231.033 36.9266 -49.4349 -18.6498 -123.609 540.371
24756 2 26.5336 -80.5139 -18.8945 243.022 -254.662 215.282 -11.6828 -42.4074 12.2565 -124.752 490.825
29625 2 28.5064 -81.0901 -14.8491 237.525 -202.23 212.056 -129.793 -18.0881 19.5983 -119.344 485.289
20238 2 24.3297 -79.6327 -18.363 234.108 -240.628 180.804 27.2375 -20.8729 -17.4174 -125.549 455.36
24511 2 32.5158 -85.7636 -19.7484 126.722 -203.001 297.801 58.1897 27.4828 -41.2239 -142.48 460.344
27183 1 35.049 -85.5653 -16.9358 -385.455 261.024 -563.377 -18.8209 -160.39 212.304 -255.402 882.083
2148 2 30.0236 -85.2459 -19.4228 234.454 -200.174 249.398 1.06066 17.0614 -42.3595 -131.504 449.31
27280 1 31.3111 -84.6643 -20.1953 -382.901 359.824 -533.032 -26.0985 -51.0132 46.2118 -259.084 837.82
24684 2 31.5642 -84.5058 -15.5709 183.692 -215.285 259.302 8.4065 -6.08305 -34.5175 -135.533 446.053
1855 2 31.6642 -83.2893 -19.4789 171.171 -172.993 249.931 -12.7045 15.3876 -51.7886 -137.297 401.247
2401 1 31.5325 -82.9244 -16.0322 -404.979 452.354 -512.604 35.6718 16.8125 60.2612 -270.809 924.356
21994 2 32.6898 -82.7011 -17.199 189.568 -210.435 282.728 14.6847 5.80028 -49.0733 -136.209 462.513
24791 2 30.1281 -82.3975 -16.5761 247.176 -210.337 202.347 -93.6893 -22.4482 -39.1576 -126.618 472.507
29765 2 34.0234 -82.5003 -19.7922 227.624 -178.595 251.78 35.0603 -4.15419 -41.9648 -142.591 429.457
29500 1 32.7504 -82.2932 -18.7443 -365.142 341.47 -520.438 1.87729 -16.7913 118.345 -259.235 822.208
29287 2 32.3821 -80.7184 -18.7123 202.321 -141.902 215.242 -43.8535 20.8133 -64.5215 -132.742 377.707
24768 2 34.9594 -82.071 -15.0087 173.39 -207.658 291.371 26.6087 19.4177 -16.9723 -137.311 456.282
29707 2 31.6494 -82.1052 -14.6473 184.052 -231.25 269.586 -45.6065 15.9002 11.8669 -127.5 471.949
27275 2 31.1821 -80.1146 34.9991 232.551 -166.924 191.337 -58.534 33.2787 -39.9564 -133.663 403.987
27195 1 34.823 -82.7907 34.608 -550.72 333.134 -459.652 -134.67 6.99838 128.354 -243.373 901.654
27479 2 -23.5723 -79.1186 -16.0238 112.771 -110.872 305.898 22.082 36.383 10.7901 -132.805 369.173
24594 2 -24.6314 -78.7833 -18.5058 141.977 -150.575 287.806 -16.1895 24.4107 -23.1693 -133.93 392.045
2543 2 -20.1664 -76.8903 -15.0024 174.087 -101.106 251.114 56.9801 -53.2093 -66.0592 -139.078 366.315
2678 1 -20.7479 -75.3993 -15.1934 -413.427 376.11 -530.182 -115.974 130.918 142.015 -251.94 938.859
24857 2 -20.6673 -74.982 -16.7627 205.062 -217.532 282.128 45.0388 -11.2506 -45.2997 -142.915 479.285
2122 2 -24.6631 -74.103 -18.2085 255.351 -231.922 270.145 30.8196 -5.0504 18.2992 -130.501 498.792
7228 1 -19.8491 -73.8344 -17.4684 -373.994 525.562 -589.259 0.922803 -58.566 36.9758 -234.577 1031.3
27356 2 -22.4891 -73.4355 -19.7444 254.907 -257.323 297.427 20.656 54.8572 11.3922 -136.956 544.669
12269 2 -19.078 -76.5682 -20.8141 162.463 -115.946 315.778 59.7713 85.793 20.8392 -142.101 421.667
14971 2 -19.4792 -74.3953 -14.8821 172.519 -221.274 293.654 37.8105 -58.4925 -48.9614 -147.392 489.074
7224 2 -15.4092 -79.284 -15.1412 240.294 -157.044 191.22 54.5051 16.7762 -78.8722 -138.703 411.347
27359 2 -17.2867 -79.3678 -17.0493 144.687 -134.926 299.97 87.72 56.7652 -35.8324 -139.735 426.988
183 1 -16.6229 -78.4934 -15.8616 -401.14 231.38 -475.358 -62.9588 -1.44315 124.91 -253.828 715.01
27456 2 -17.7007 -78.1331 -19.3226 136.78 -107.199 311.41 83.3005 60.8858 2.6665 -142.416 405.693
7392 2 -16.0982 -77.1007 -16.4563 219.37 -118.244 214.584 -4.65721 30.3605 -39.817 -143.426 346.377
6943 2 -14.1343 -77.021 -20.1057 270.326 -279.129 325.013 49.1248 47.3085 -35.8083 -137.762 593.919
29800 1 -17.6957 -76.6815 -20.1028 -287.888 247.268 -675.716 -69.3278 -103.654 -45.726 -247.698 835.029
29592 2 -14.4761 -75.7831 -15.0745 291.068 -187.789 186.549 -5.65743 83.8861 -24.2812 -139.059 461.686
7466 1 -15.7116 -75.6292 -16.0339 -543.052 334.628 -392.582 40.3946 -84.8949 47.0248 -245.054 833.096
29753 2 -17.5498 -75.4904 -19.0007 137.253 -163.359 350.102 -4.73936 32.0976 37.3094 -147.493 454.963
4713 2 -16.909 -74.9528 -15.1617 207.048 -182.043 247.984 3.83493 15.5774 -23.697 -147.001 414.068
29936 2 -15.8429 -74.6619 -17.2911 266.833 -221.313 241.438 -12.2892 29.0002 -5.02345 -148.054 479.151
27640 1 -16.9724 -74.2124 -18.2188 -368.109 418.188 -631.918 -7.56513 -36.2717 -6.4523 -232.585 948.438
29850 2 -18.2882 -73.9456 -17.0478 138.08 -240.961 268.73 4.75067 13.8295 -15.3824 -154.796 460.016
2029 1 -18.0346 -73.8376 -15.252 -339.647 448.532 -562.071 -65.3123 3.79627 1.90262 -233.156 926.747
7186 2 -17.845 -78.1693 -14.8901 160.452 -89.2391 237.69 35.5347 -43.5779 -73.9954 -139.814 336.91
15059 2 -13.1448 -74.9389 -18.8464 305.836 -283.91 292.292 -7.32637 42.4573 4.62434 -137.45 587.903
17098 2 -7.94731 -79.5208 -17.4047 289.984 -348.353 277.124 126.577 29.5818 -36.0198 -126.039 673.805
29878 2 -9.31702 -79.5511 -15.3488 294.667 -309.287 206.666 100.871 104.556 -100.421 -131.786 642.596
12202 2 -10.575 -78.8862 -17.5814 277.286 -287.665 218.438 117.58 6.80031 -30.3556 -134.971 577.724
7135 2 -12.2325 -79.0117 -15.7415 281.504 -244.268 171.867 73.9461 61.9092 -36.8669 -138.868 512.633
12086 1 -12.131 -78.8089 -17.3378 -558.958 482.718 -448.222 -128.738 -90.9889 108.83 -258.065 1045.03
7449 2 -12.6909 -77.4077 -17.9378 293.946 -228.292 246.539 38.2864 46.7592 -53.8422 -137.864 519.496
4919 2 -7.50229 -77.1855 -16.1189 291.282 -327.154 240.263 64.8144 41.9302 -74.0992 -134.846 622.787
2110 2 -11.4832 -76.6064 -20.0549 349.707 -374.643 311.739 34.3876 5.13424 -25.4579 -132.422 710.066
9891 1 -12.8872 -76.5104 -19.264 -610.847 587.376 -606.737 -61.6052 -77.8526 59.8997 -262.529 1212.92
2475 1 -9.95151 -76.2739 -20.5179 -708.074 848.663 -686.051 -79.7142 13.4287 -17.6458 -272.031 1552.47
7330 2 -9.88748 -75.9188 -15.7356 340.866 -264.966 159.762 49.2655 38.5662 -8.86134 -137.188 549.629
29872 1 -8.24147 -75.8328 -15.7748 -612.739 600.768 -459.067 -98.3281 -44.6526 52.3945 -261.257 1163.17
4703 2 -9.30396 -75.2237 -19.4482 364.457 -417.894 316.301 44.6605 4.52721 20.5863 -133.042 764.22
9709 1 -7.90391 -74.9752 -18.6604 -587.562 791.058 -611.545 -161.057 -3.38899 -48.5426 -262.725 1420.97
17387 2 -8.04791 -74.8298 -17.0862 302.177 -347.557 247.094 52.7489 -16.4712 21.3887 -137.262 632.402
9796 1 -10.8688 -74.6498 -15.6611 -682.532 491.71 -338.779 -49.7443 -131.998 -49.9172 -260.905 1077.28
9609 2 -11.4233 -74.321 -17.127 344.983 -293.683 215.749 2.79809 66.5899 33.8294 -136.673 599.014
5080 1 -12.5279 -73.6349 -18.0405 -629.543 555.828 -520.361 45.0042 -130.918 -26.8212 -261.955 1160.71
4907 2 -7.2047 -73.7433 -19.4166 245.633 -368.542 311.098 95.4792 10.484 18.9137 -132.798 671.159
27453 2 -8.80831 -77.4746 -20.7446 268.398 -361.333 360.135 56.1608 -17.3169 29.4051 -130.733 689.711
7498 2 -3.58683 -79.674 -19.7085 339.669 -521.035 313.727 14.8952 18.8541 -27.1364 -112.929 850.351
17286 2 -6.79078 -79.3052 -20.4434 220.965 -364.591 354.885 84.4901 -10.8827 59.9979 -124.144 686.876
12096 2 -7.02885 -76.3221 -18.952 245.479 -393.839 316.744 67.3315 8.47216 1.32051 -135.351 687.887
9689 2 -3.58266 -79.7667 -15.4424 312.453 -453.501 280.675 -31.4591 55.1442 -111.74 -117.983 782.882
17496 2 -6.06326 -79.3366 -15.511 320.86 -380.854 231.365 27.3837 85.8601 -143.273 -124.251 723.574
14496 2 -2.44813 -78.6621 -17.5542 334.841 -482.136 310.474 -70.6012 12.9708 -68.6488 -114.984 823.246
12376 1 -6.76124 -78.5805 -16.6863 -608.177 730.181 -535.744 -115.359 -95.4555 162.487 -278.444 1358.66
7191 1 -2.91947 -78.2775 -19.1243 -681.106 970.725 -613.468 91.7777 54.1904 78.3139 -300.679 1635.2
19582 2 -1.59629 -77.9281 -19.9328 351.896 -485.419 276.72 -39.8617 -32.9228 -31.277 -116.797 809.169
4927 2 -5.6749 -77.9534 -17.6775 289.357 -386.959 290.29 8.58464 27.2629 -47.1764 -127.468 683.493
7414 2 -4.02442 -77.0755 -19.2113 327.958 -395.683 298.034 -21.3047 -19.1853 6.49377 -122.796 710.979
14968 1 -5.45401 -76.6717 -18.5702 -560.625 748.575 -599.306 -49.3716 -32.4658 8.07653 -274.224 1332.97
7391 2 -5.12004 -75.2769 -17.8342 279.379 -357.672 263.643 82.5584 39.0754 -3.17841 -132.601 648.934
12372 2 -2.2035 -74.2862 -20.3453 322.363 -366.634 305.154 48.6336 -71.5452 64.5021 -121.389 705.754
7475 2 -3.9654 -74.3607 -15.8144 330.093 -354.813 244.407 51.7687 71.1009 -54.9071 -130.388 670.822
12216 2 -1.64217 -73.8245 -15.1755 361.183 -361.343 206.852 28.4114 63.0315 -86.3597 -128.25 686.345
2690 1 -4.62213 -73.8946 -17.2134 -632.418 721.71 -488.463 -174.217 -86.934 4.20112 -269.902 1331.63
19649 2 -1.149 -73.8571 -17.8119 314.784 -386.961 302.629 13.7386 28.5261 -17.5867 -122.251 698.569
10268 2 3.7772 -78.9943 -16.9295 186.83 -271.099 299.929 -60.1219 8.74755 -21.1 -124.799 535.436
19762 2 4.58824 -78.5614 -19.408 184.234 -276.057 313.443 -35.8736 41.485 -59.2413 -124.671 554.607
19597 1 3.70001 -77.8317 -15.8967 -395.471 499.075 -553.377 146.452 64.8293 28.6421 -284.201 1022.65
12299 2 2.31118 -76.9833 -16.0154 254.252 -288.882 257.197 -69.2394 -35.2394 0.269687 -122.122 560.991
2204 2 2.21919 -75.8078 -20.2159 274.425 -351.906 291.033 -35.626 56.3561 -18.3267 -121.431 645.997
9975 1 1.64695 -75.6763 -15.4145 -612.067 624.629 -435.666 152.275 50.8364 96.7099 -284.54 1203.23
12187 2 0.368033 -75.049 -16.1175 349.43 -345.473 238.572 -60.2737 33.7182 -51.9819 -121.906 663.747
12195 1 3.6572 -75.0443 -20.3685 -454.087 671.732 -564.538 -3.88871 -125.925 46.4456 -285.786 1207.52
24695 2 2.82514 -74.5419 -15.4852 272.402 -313.263 211.595 -74.3359 -44.5537 -47.4882 -128.639 583.426
17445 2 4.38646 -74.3478 -19.1477 205.957 -355.786 328.759 11.1008 16.8649 -33.5563 -123.461 635.783
17283 1 -0.51654 -73.7259 -16.3376 -670.497 739.956 -472.648 15.0824 -133.808 142.187 -284.032 1365.47
12087 1 4.06896 -73.6366 -15.0495 -512.818 563.352 -432.447 85.105 98.8695 114.404 -276.099 1080.94
14604 2 4.55402 -76.3258 -20.8772 216.923 -284.914 225.811 -11.3973 68.4332 -27.5618 -125.4 522.587
17475 1 4.84989 -77.8616 -20.8771 -425.163 533.34 -504.935 88.1509 -118.258 99.1384 -284.876 1047.05
11882 1 -0.522985 -78.8399 -20.7171 -728.146 983.32 -534.205 165.052 -52.2059 141.748 -300.574 1668.83
22268 2 9.39199 -78.5179 -18.7358 290.535 -332.797 219.336 26.0542 -8.67696 -116.772 -125.359 626.42