ITEM: TIMESTEP
840000
ITEM: NUMBER OF ATOMS
29952
ITEM: BOX BOUNDS pp pp pp
-2.5164588948708733e+01 3.5149883297801296e+01
-8.7499949569866331e+01 9.7485243911866320e+01
-2.0943485494817040e+01 3.4811338639539180e+01
ITEM: ATOMS id type x y z v_StrAtomXX v_StrAtomYY v_StrAtomZZ v_StrAtomXY v_StrAtomXZ v_StrAtomYZ c_PEAtom v_VMS
29408 2 -24.2282 -82.2003 -16.036 83.4174 36.7723 151.461 -10.6142 68.3659 -119.581 -128.083 259.303
7026 2 -20.0455 -82.4302 -16.0881 -0.0217228 104.25 145.948 40.1327 173.228 -148.882 -125.492 422.27
4598 1 -23.7942 -83.3 -14.9169 -145.924 -87.4894 -218.839 79.8366 -110.876 115.091 -273.83 329.745
24802 2 -19.5348 -83.374 -18.4356 -105.076 97.087 198.268 4.57932 116.529 -233.714 -109.886 525.574
9698 1 -20.18 -83.7189 -17.0492 115.286 -292.023 -224.044 -30.3694 -286.528 382.681 -294.437 911.718
29586 2 -21.6471 -84.2746 -17.4071 -55.4899 105.199 118.14 -25.1786 97.4409 -205.796 -123.313 430.708
29892 2 -23.3004 -84.672 -15.5807 57.0872 57.2761 31.6881 -91.0226 64.4957 -86.9554 -132.952 246.309
9587 2 -19.4982 -84.9033 -16.1121 5.11189 203.389 -17.6826 -14.2096 158.613 -104.858 -124.877 391.687
2390 1 -22.8515 -85.35 -16.8994 -0.022366 -118.792 -76.0207 238.366 -176.573 307.122 -277.582 746.871
29458 2 -24.3086 -85.7031 -17.5339 12.2273 -17.7194 99.4771 -134.221 99.9055 -150.37 -123.248 403.664
1996 1 -19.278 -86.2783 -15.407 -55.2351 -483.853 189.973 53.8691 -269.134 69.6917 -268.753 767.8
27153 2 -22.104 -86.7901 -16.7638 -45.7457 107.946 -24.0601 -173.791 108.972 -122.787 -129.069 438.432
2362 2 -20.5721 -83.116 -20.837 -136.959 54.3396 204.861 19.3987 104.234 -127.521 -113.682 412.981
1988 2 -19.7228 -87.4714 -16.4434 -47.7707 165.984 -53.8753 -119.688 91.5152 -79.4442 -130.172 366.153
27392 2 -22.6345 -81.6638 -20.9061 -21.1917 -27.363 211.824 137.226 71.0461 -67.7849 -133.273 375.756
7203 1 -19.156 -83.0805 -19.9984 142.134 -120.12 -390.153 38.8144 -159.11 360.295 -328.706 826.085
7200 2 -18.665 -81.5143 -19.9524 5.84766 -50.5368 174.534 32.8922 86.235 -168.683 -113.418 389.953
12669 2 -18.0635 -83.9956 -20.5684 -0.139837 73.3463 149.263 -99.2976 12.1046 -110.211 -85.6534 288.446
27010 2 -17.8429 -86.5649 -14.9948 4.73794 251.918 -145.202 37.468 63.231 48.1438 -133.072 379.211
17178 2 9.16557 -81.4143 -14.765 73.1316 -143.132 65.2025 -26.858 -79.4576 -55.2574 -108.892 274.559
9708 2 15.3901 -81.2489 -17.6797 175.729 -287.82 72.4301 -18.7202 -53.209 -39.7024 -115.358 438.107
22101 2 13.5249 -82.3727 -16.8202 165.689 -221.51 46.5652 -16.4841 -101.434 -13.4329 -103.681 387.572
19480 1 14.9351 -82.8124 -17.6928 -234.239 414.9 -70.5906 -17.5133 85.4983 63.8342 -322.183 614.008
22086 2 14.6945 -83.119 -19.2626 80.8634 -210.471 60.512 34.047 9.22086 -5.31751 -101.323 288.407
24584 2 16.2616 -83.7023 -17.3355 113.408 -150.761 -21.4147 -3.507 -9.84667 -49.2516 -102.137 244.85
17089 1 14.7869 -83.1703 -20.874 -176.795 476.435 -246.569 -61.2234 -65.6188 -68.9823 -340.326 718.049
19772 2 21.956 -81.6523 -17.362 188.518 -162.691 123.559 -103.238 -14.0553 -65.727 -111.129 387.66
22275 1 22.4587 -82.6089 -16.1616 -374.227 233.294 -102.571 240.291 2.12611 87.7661 -310.062 688.61
22171 2 18.406 -82.5548 -18.352 173.723 -214.167 84.0782 -61.0106 -14.2175 -44.7104 -109.154 376.156
14975 2 18.0227 -82.7521 -15.8781 202.925 -209.559 36.6267 -62.9667 6.03274 -42.2872 -110.287 382.846
19586 1 17.8314 -83.5393 -17.2585 -319.721 349.164 6.8448 116.314 -31.9578 113.57 -325.575 646.501
22077 2 21.3395 -83.7726 -16.2111 185.796 -151.06 -1.75665 -118.18 1.52146 -63.0463 -109.356 373.23
22008 2 18.9202 -84.6766 -16.8743 163.196 -122.595 -53.4708 -66.6615 30.6762 -52.0375 -97.2984 301.625
19527 1 20.2065 -85.021 -15.9747 -346.044 261.82 148.47 153.104 -53.452 99.8417 -333.048 649.803
24796 1 22.7196 -86.13 -16.0432 -219.065 313.06 47.1461 99.1281 48.1835 77.8403 -326.452 516.71
25055 2 21.1464 -86.2144 -16.3914 115.586 -114.693 -79.0363 -6.41496 2.61232 -10.9869 -94.6945 215.858
24766 2 22.2537 -81.6806 -14.8652 187.19 -129.068 63.6285 -100.289 23.8043 7.34421 -114.602 329.006
24786 2 26.4505 -81.4526 -15.468 226.419 -123.713 107.718 -55.4892 -7.41026 -39.0772 -115.67 330.31
22164 2 28.7159 -81.4633 -16.8799 143.09 -135.163 158.807 -28.0469 -12.3726 -37.6017 -122.271 298.506
22273 1 25.572 -82.851 -15.5712 -432.543 273.417 -180.652 99.3466 -20.9436 20.2209 -302.608 645.1
19964 2 24.0476 -82.7772 -16.1062 187.742 -131.732 67.9232 -91.858 -0.89632 -28.0403 -113.345 325.294
17203 2 26.4035 -83.7488 -16.5248 176.281 -164.681 123.125 -3.80208 -4.7583 -5.75418 -117.178 318.068
26997 2 23.464 -84.9476 -20.0777 78.313 -242.488 202.553 -76.9226 34.9173 -69.7153 -102.678 440.676
29747 2 25.7442 -85.1529 -18.4378 100.515 -238.26 181.214 -41.1728 -30.0009 -47.8859 -111.295 404.085
21997 1 26.6947 -85.2112 -17.0707 -234.622 393.566 -278.722 -25.2029 47.2343 26.1588 -303.46 659.484
27197 2 28.2708 -85.2978 -17.2183 82.1864 -181.062 177.255 37.0453 4.52128 -9.11466 -116.78 328.317
22209 2 23.295 -85.5522 -17.4768 95.589 -203.462 77.8447 -67.8135 -24.7139 -42.5389 -104.693 324.803
20053 1 24.2058 -85.6412 -18.8758 -136.264 445.908 -344.021 125.844 -12.3839 144.181 -328.773 783.18
17375 2 26.0034 -86.3851 -16.2343 55.3207 -167.898 78.2545 4.04511 -14.6048 -44.7619 -111.588 249.343
24589 1 28.0945 -86.8138 -20.0326 162.97 276.14 -391.445 36.2466 69.6029 12.2429 -318.056 633.918
27478 2 24.5656 -87.2467 -19.0956 -6.02823 -115.011 80.1618 27.9724 1.48713 -25.762 -90.8636 181.78
2035 2 23.6894 97.641 -15.7554 23.8832 -81.6613 -50.702 2.67926 -6.5429 -27.4595 -98.9628 106.031
2387 2 35.1823 -87.1911 -15.6076 72.216 29.0755 -36.8895 -139.09 30.5449 -102.827 -124.422 318.772
27104 2 29.3794 -86.0927 -19.3392 -23.2602 -192.332 231.296 38.4902 49.8424 -3.63621 -113.271 385.175
27183 1 34.9579 -81.3822 -16.7694 -221.802 55.677 -393.008 -23.3087 -103.356 209.449 -278.572 564.886
24511 2 32.4763 -81.5009 -19.6673 30.6224 -120.716 255.103 31.5564 -17.6418 -48.1521 -130.794 343.721
4481 2 33.4782 -81.7115 -16.1395 122.904 -59.7817 181.713 -27.0111 23.3827 -81.5893 -129.427 267.162
24783 1 31.8823 -81.8202 -15.8608 -213.175 190.837 -416.886 52.8578 48.6582 128.447 -274.103 593.301
4700 2 34.7065 -81.9225 -18.3021 69.62 -73.951 253.214 29.8738 33.8076 -130.368 -128.678 371.176
22191 1 29.6985 -81.9898 -18.0486 -226.158 278.928 -430.086 -11.0788 9.47922 61.604 -286.834 641.656
19712 2 31.1083 -82.1036 -17.2209 78.8119 -132.182 189.431 1.00738 -24.0078 -63.0676 -129.877 306.202
26883 1 33.632 -82.6174 -19.3503 -89.5464 249.449 -585.031 -30.9647 -13.1287 186.992 -276.775 797.923
29215 2 29.4686 -83.5332 -18.4845 95.5679 -147.155 234.315 45.8026 24.242 -1.81557 -121.926 346.279
27173 2 33.0827 -84.0964 -18.7908 34.6225 -131.824 250.522 -22.1764 58.5337 -129.94 -124.422 415.524
19205 2 33.6528 -85.0407 -16.4106 101.832 -94.591 93.9338 -98.3504 60.9091 -116.776 -126.904 343.731
27003 1 32.7109 -85.3125 -17.7645 -160.076 200.904 -303.242 113.975 -222.79 230.777 -294.704 741.71
27015 1 29.6363 -85.1022 -18.0311 -167.06 332.761 -421.918 -80.1257 -94.339 12.9722 -298.323 699.015
22088 2 31.1129 -85.3443 -17.5479 94.053 -126.523 162.702 -15.9004 73.9191 -65.8214 -118.619 314.097
22398 2 31.5074 -83.0446 -14.7768 101.362 -78.0303 164.121 -53.3544 -10.7972 -82.165 -130.049 276.626
6976 1 34.707 -86.2706 -16.8027 -110.191 52.6931 -84.5182 247.508 -199.742 232.267 -289.394 698.801
2216 2 33.5871 -86.6856 -17.8859 19.7359 -6.01952 92.9166 -89.9586 136.919 -81.2401 -110.484 328.971
21972 2 34.2463 -82.866 -20.8341 39.2866 -148.042 301.236 37.9952 -13.8162 -26.2366 -129.323 399.686
27099 1 -19.785 -80.9424 -15.6376 -46.3954 -29.9703 -405.177 -53.9715 -329.402 301.448 -276.951 861.252
22489 1 -22.6257 -80.1719 -20.3229 -80.2214 179.536 -452.009 -232.319 -46.4116 167.875 -256.24 745.116
24306 2 -19.8114 -80.1466 -17.0482 -15.965 -70.1097 313.299 63.102 126.13 -194.454 -127.699 549.803
24774 2 -21.8358 -79.9897 -18.9428 2.02908 -104.487 306.637 88.3154 40.7813 -136.07 -135.717 469.586
7109 2 -19.4379 -79.1824 -19.3749 42.3712 -145.295 248.941 132.145 97.0765 -135.592 -134.848 502.464
14942 1 -20.4921 -79.372 -18.2265 15.9379 240.852 -663.466 -179.542 -162.854 300.184 -267.611 1054.32
14959 2 -22.9971 -78.5877 -15.2914 101.584 -100.283 225.337 4.59115 23.6044 -64.4114 -129.485 308.591
29403 1 -24.4192 -78.3402 -16.0434 -200.357 206.059 -474.007 -64.3061 -17.1314 97.255 -277.792 626.845
4712 2 -20.9054 -77.9096 -17.8043 49.0868 -131.743 333.935 85.9743 35.4085 -85.0852 -133.533 461.521
29603 2 -21.3257 -77.016 -20.1471 63.5866 -115.343 241.99 95.795 23.9798 -58.3578 -142.239 367.747
15248 2 -24.3597 -77.0695 -17.1079 91.3551 -114.515 262.076 12.3069 -8.46632 -46.3621 -128.52 337.331
7478 1 -21.0774 -76.4605 -18.603 -197.787 237.682 -580.566 -201.723 -45.3247 52.01 -267.326 799.498
25049 2 -22.4257 -75.7272 -18.089 126.435 -120.796 274.046 24.2693 -24.5012 -13.7312 -128.373 351.483
1904 2 -19.6924 -75.7028 -18.5527 101.257 -93.076 266.768 155.613 60.0536 -12.4837 -132.294 425.743
2222 1 -23.903 -75.5714 -17.4605 -184.885 211.138 -511.776 41.0903 18.2321 57.471 -282.109 639.624
2397 2 -24.0416 -79.4124 -20.6105 158.008 -105.473 191.859 95.1067 -18.2809 -60.6818 -137.494 344.489
21893 2 -24.8958 -79.7923 -16.6588 120.381 -62.4865 223.366 51.5991 26.8977 -65.6084 -128.036 293.173
2497 1 -18.3065 -79.9299 -20.2674 -193.8 296.353 -325.128 -196.875 -161.282 256.864 -286.674 845.056
9677 2 -16.958 -79.2315 -19.8099 132.609 -178.982 146.853 81.0773 85.3614 -116.619 -118.663 429.081
14870 1 -16.2815 -77.7886 -19.6654 -319.932 426.698 -364.649 -209.571 -180.553 190.063 -289.326 964.765
7102 2 -14.932 -77.4899 -18.6831 205.627 -237.93 164.589 79.632 95.5255 -71.2534 -118.379 491.787
29845 1 -13.7086 -77.1346 -17.6729 -422.191 469.734 -270.985 -184.663 -92.6995 110.714 -297.378 921.077
10065 2 -14.159 -77.1093 -16.1564 179.502 -170.303 117.572 121.449 29.0157 -103.167 -121.332 428.066
4872 2 -17.3416 -76.771 -19.1053 116.928 -172.502 230.244 140.996 95.3644 -65.9328 -130.923 478.927
4705 1 -18.0785 -75.4724 -18.4254 -170.907 215.947 -518.12 -278.448 -151.985 38.9873 -270.986 843.204
27359 2 -17.6782 -75.2535 -16.878 84.434 -96.1248 256.631 99.7787 61.2982 -44.997 -129.621 374.912
7224 2 -15.5794 -75.1812 -15.196 197.341 -131.721 126.966 91.9782 34.9281 -78.9308 -126.958 371.223
2038 2 -13.0789 -75.6791 -17.9156 232.795 -255.592 148.003 86.7054 53.048 -48.6951 -121.315 492.351
2324 2 -10.0984 -78.8318 -19.3051 15.6746 -202.479 134.068 62.9193 -87.4349 -54.261 -100.416 362.049
29493 2 -12.3911 -78.1332 -17.9014 142.832 -203.356 91.3972 78.9838 -30.7356 -46.102 -110.88 364.158
2391 1 -10.9471 -77.8624 -18.4011 -193.76 497.215 -279.139 -148.792 139.46 24.3611 -316.635 818.703
4813 1 -9.63603 -77.742 -20.3955 -105.564 620.546 -507.642 -179.017 261.967 59.5572 -322.02 1137.33
9811 2 -8.16511 -77.1667 -20.0986 57.3991 -315.164 256.149 105.653 -93.0721 -14.5099 -105.655 558.98
15212 2 -9.97026 -77.1141 -17.3927 112.609 -244.38 159.138 91.7362 -10.1001 -5.5327 -111.042 414.561
27092 2 -10.8517 -76.8267 -19.7426 144.175 -311.231 245.214 71.2605 -107.876 -3.43757 -109.979 560.178
4921 1 -9.44998 -75.6933 -16.9254 -362.317 556.526 -346.858 -241.995 -29.8888 10.3311 -301.452 1004.49
29878 2 -9.37301 -75.45 -15.3665 200.382 -268.635 143.665 94.9857 80.5282 -74.0551 -119.268 509.476
17098 2 -7.95912 -75.2473 -17.4004 205.943 -311.826 227.87 120.763 -3.19946 -15.5445 -112.309 569.584
12129 2 -3.33404 -78.0588 -19.8522 229.963 -248.041 146.639 17.2893 74.3843 -39.8588 -74.411 466.759
9904 1 -3.96845 -76.9562 -18.9651 -426.029 711.444 -392.149 -88.6239 -157.281 82.3874 -362.305 1172.43
7236 2 -3.30567 -76.6598 -17.476 234.059 -398.625 169.824 -12.1541 56.6113 -82.6466 -90.361 627.952
29863 2 -5.61378 -76.8956 -18.9983 159.999 -343.392 231.537 85.0506 64.1283 -15.8396 -92.9243 573.867
12279 1 -6.67104 -76.5698 -20.1725 -226.606 673.37 -535.635 -218.859 6.41776 -25.8059 -328.844 1152.99
9687 1 -2.64473 -75.544 -16.5281 -523.105 873.217 -412.669 130.742 -79.9429 185.253 -333.934 1407.52
7498 2 -3.59578 -75.4798 -19.5755 248.893 -472.818 240.89 39.3923 47.2991 -36.3896 -97.8184 728.35
9689 2 -3.73542 -75.3017 -15.3887 253.857 -400.323 187.885 -16.9755 62.102 -121.671 -106.373 667.826
17496 2 -6.17258 -75.2312 -15.3782 277.886 -351.783 168.356 39.0985 84.5008 -135.436 -109.966 648.498
4796 2 -1.26106 -75.9625 -15.7236 272.096 -413.808 141.924 -97.8951 -1.2879 -66.5307 -102.066 663.444
17286 2 -6.83549 -75.0139 -20.4318 129.584 -309.939 297.665 94.8364 -7.45523 46.8238 -110.665 573.614
17461 1 4.52693 -79.7092 -20.204 59.0637 478.928 -265.75 139.166 -3.13294 93.6294 -308.869 708.942
17291 2 4.62014 -79.257 -18.697 -14.34 -271.196 268.372 -66.9505 15.5299 -34.079 -111.157 485.976
4338 2 0.493447 -78.9955 -15.79 137.367 -256.683 91.5616 -14.4185 -62.515 -63.5865 -89.5332 404.724
20152 1 4.42864 -78.232 -17.4398 -127.629 655.542 -631.077 140.581 -57.9799 97.8253 -307.013 1165.84
22379 2 2.9638 -78.2745 -16.7819 104.422 -348.484 252.599 -62.2642 -45.1138 -65.9437 -107.811 570.064
17344 1 1.35948 -77.7947 -16.4781 -335.025 717.643 -378.224 157.249 166.788 149.743 -331.478 1174.88
12204 2 0.885436 -77.4212 -17.9533 190.306 -405.367 209.872 -100.803 -63.3348 -57.8109 -98.6536 647.617
17199 1 1.18291 -76.6328 -19.3452 -427.692 772.872 -394.558 290.218 10.976 98.1232 -327.739 1297.92
4992 2 1.21453 -76.5444 -15.4797 225.585 -352.274 170.058 -90.2965 -78.5717 -48.9364 -107.233 595.888
14780 2 0.0491457 -75.6194 -19.8469 294.806 -411.938 177.802 -152.472 32.1035 -79.2554 -99.9888 722.61
12465 2 2.40202 -75.6489 -18.9455 153.69 -301.272 223.368 -102.982 -3.39942 -40.4836 -111.323 529.446
22178 1 3.86063 -75.3476 -18.2935 -191.595 452.663 -507.963 100.812 11.5993 49.5086 -304.218 870.187
19968 2 4.51081 -76.808 -18.1915 82.6411 -297.894 291.6 -62.158 18.1239 -27.5171 -118.042 531.823
9790 2 1.75874 -77.5994 -20.4579 168.555 -351.217 154.077 -117.953 16.9289 -15.1022 -106.399 553.29
19486 2 2.94281 -79.8376 -20.4828 35.0107 -221.01 71.1462 11.8001 3.02008 -55.1187 -103.006 292.683
19694 1 9.99353 -80.1731 -15.4951 -341.552 463.129 -243.79 130.846 234.058 114.606 -309.009 912.971
29564 2 9.69324 -79.4804 -16.9975 164.899 -243.719 183.795 -70.5517 -84.2956 -38.664 -109.803 464.523
17096 2 5.53789 -78.2285 -16.2202 117.634 -338.65 274.858 -52.6585 49.5848 -83.1328 -117.252 584.022
17006 1 10.4575 -78.2859 -17.8701 -348.496 464.335 -350.542 155.586 143.944 53.1251 -312.845 897.557
12116 2 9.43425 -77.0628 -18.2699 207.299 -257.28 163.421 -36.0227 -6.22196 -45.2121 -113.419 455.539
14588 2 9.96908 -76.1571 -15.2099 187.091 -209.678 135.384 7.9596 -65.8803 -103.987 -119.6 430.388
12490 2 7.65348 -75.6654 -19.6035 226.492 -277.652 184.274 3.2866 74.0933 -53.3591 -114.37 509.61
22117 1 8.43518 -75.6494 -15.2776 -410.151 376.922 -276.363 3.86081 135.752 182.113 -295.46 828.8
19850 1 8.61603 -75.608 -18.3806 -460.447 553.514 -361.354 4.88523 -75.3235 144.651 -305.521 1008.62
12464 2 8.12446 -75.3725 -16.8423 216.718 -244.886 177.769 -13.5282 -18.1529 -83.6178 -117.154 468.113
12012 2 7.30994 -76.7856 -14.8969 184.675 -232.873 136.941 -26.4513 -51.8887 -102.308 -123.393 445.276
14595 1 6.05261 -77.7809 -14.8134 -316.388 569.278 -289.336 138.549 23.0697 189.104 -287.751 963.142
17449 1 7.21923 -75.2934 34.6926 -409.514 487.556 -273.917 -58.5525 -97.9156 98.1914 -304.295 877.185
17384 2 11.0654 -78.8366 -19.1926 188.702 -235.663 148.026 -84.272 -54.8328 25.4361 -106.953 443.559
19779 1 12.9923 -80.9161 -16.1811 -472.041 572.6 -218.602 177.328 246.021 12.474 -317.62 1080.34
12511 2 13.8382 -80.4987 -14.8353 247.374 -294.917 143.12 -75.5888 -114.507 5.79753 -111.192 552.258
17465 2 11.48 -80.6425 -15.6777 224.217 -254.661 109.218 -84.5715 -130.867 -29.6648 -108.967 512.79
12561 2 13.4121 -79.9066 -17.385 249.11 -271.713 116.093 -112.14 -99.8521 -27.9816 -110.098 538.199
19792 1 14.9238 -79.7815 -18.077 -451.78 504.303 -185.212 94.5712 138.577 98.6472 -307.6 918.655
22116 2 15.2481 -79.7159 -19.6356 204.498 -229.717 101.398 -20.8401 -20.7691 -61.8413 -113.301 410.457
12594 2 15.7903 -78.651 -17.2504 225.446 -185.133 118.76 -35.3324 -74.2033 -39.4257 -111.738 401.348
19368 2 11.3875 -77.649 -16.7296 184.394 -206.454 132.388 -66.842 -87.8742 -66.856 -113.806 430.254
22372 1 11.5608 -76.5895 -15.5635 -384.905 387.615 -271.752 5.72895 105.239 187.745 -304.216 813.171
17177 2 16.1327 -75.8125 -19.7243 176.276 -125.745 85.1624 -86.9097 -24.5987 -42.5948 -115.07 319.246
22440 2 12.4845 -75.3787 -16.0901 209.695 -200.729 119.69 35.1768 -61.5698 -84.3406 -112.921 419.563
4791 1 11.4277 -79.2803 -20.7225 -398.214 445.643 -157.684 97.7698 67.9172 -96.2737 -324.518 798.309
20080 1 16.0791 -80.3524 -20.8281 -342.932 479.284 -309.607 -17.5509 43.4436 67.2408 -311.508 818.474
14611 2 12.3787 -80.6507 -20.8722 185.222 -259.747 103.391 -41.5598 8.44222 47.8847 -104.877 424.919
19598 1 18.5393 -81.0456 -18.8183 -379.003 475.925 -239.581 57.3952 45.1552 88.6012 -304.39 818.96
19602 2 17.5359 -80.7776 -20.0905 154.694 -245.6 144.705 -9.48172 -58.2833 -23.6262 -114.505 410.452
22283 2 20.0886 -80.5443 -18.7529 222.062 -234.744 135.548 -54.115 -35.2146 -46.5286 -113.933 442.308
19489 1 21.2241 -80.2979 -17.612 -431.853 432.366 -261.874 105.629 25.9628 125.029 -306.513 843.362
17265 2 17.8872 -80.0782 -17.7379 185.121 -254.414 97.138 3.70133 -3.77975 -61.0676 -118.963 416.572
22582 2 20.3876 -79.8217 -16.2712 205.892 -222.458 134.625 -36.6805 24.0771 -30.8288 -116.213 408.243
22199 2 22.5107 -79.2607 -17.8642 191.217 -220.191 144.628 -29.1761 -27.9331 -41.5231 -114.203 402.898
17355 1 19.3011 -79.3892 -15.146 -418.126 410.486 -296.548 46.7423 -40.1286 -30.9782 -304.647 784.157
20041 1 17.4357 -78.6205 -17.2743 -363.654 371.808 -256.09 37.5076 35.8707 81.4952 -304.102 708.075
19685 2 18.1403 -78.4914 -15.8454 185.686 -197.25 169.971 -18.4214 -6.75591 17.287 -113.327 378.049
22386 2 18.0696 -77.7043 -18.3148 139.215 -159.86 110.591 -45.8275 -9.10983 -64.1766 -116.032 317.191
24954 2 20.4738 -77.5087 -19.2018 221.753 -216.587 123.321 -35.9392 -9.15262 -63.2424 -115.736 418.101
22192 1 18.9482 -77.206 -19.5253 -363.646 334.896 -221.856 97.0744 31.4127 128.022 -301.776 699.585
24784 1 21.8672 -76.7591 -19.1675 -432.947 403.199 -271.984 43.4903 -43.4363 66.0461 -305.025 784.144
17760 2 22.1182 -76.2562 -17.6605 205.487 -185.359 146.196 -7.4197 9.22954 0.133782 -113.329 365.409
29693 2 18.6106 -75.6338 -19.6211 175.788 -138.724 111.769 -100.304 -15.0335 -35.8925 -115.47 342.938
24694 2 21.6745 -75.4211 -20.018 219.765 -197.61 157.584 -36.8947 24.2391 -37.8835 -113.728 402.824
7379 2 18.5901 -77.9477 -20.8453 164.85 -179.297 140.073 -42.7215 -37.3679 -51.0103 -116.709 357.763
22399 2 23.0744 -77.6941 -19.7187 194.778 -196.514 142.932 -36.8718 3.0832 -6.44434 -115.756 373.821
22408 1 28.0086 -81.0477 -15.461 -333.153 229.316 -254.666 91.0097 41.8743 93.6853 -293.202 578.64
27622 2 23.852 -80.2865 -19.7922 159.104 -172.598 168.758 -65.0259 -28.4843 19.9152 -112.967 360.043
24794 1 23.3639 -75.744 -16.9047 -337.659 335.966 -292.655 -0.185938 14.1 -3.53993 -305.425 652.774
4581 2 28.1702 -79.4736 -15.1959 148.889 -79.6036 130.742 -99.5817 -24.9648 -31.5125 -118.366 288.08
22143 1 23.7182 -78.9833 -18.915 -367.288 359.87 -267.595 73.0102 48.7297 0.0133287 -306.17 699.515
29801 2 27.541 -78.4657 -19.6319 171.617 -142.326 171.015 -60.5032 -7.61288 -12.7346 -114.815 331.683
24582 2 25.1308 -78.4623 -18.3948 186.713 -177.942 132.762 -41.2855 -0.296825 0.829506 -114.278 348.319
22371 1 28.4671 -78.1214 -15.8803 -287.344 182.442 -264.235 260.016 20.1228 57.394 -301.021 651.382
24866 1 26.629 -77.8148 -18.4472 -340.056 299.51 -308.482 140.985 -14.7707 13.7292 -305.176 671.341
19798 2 27.4192 -78.0116 -17.0901 157.059 -128.944 145.544 -119.597 30.7322 -26.5781 -114.877 355.668
22572 2 23.7951 -76.9097 -15.8528 165.885 -189.783 190.181 10.4293 -10.1368 -24.5096 -114.244 371.709
24756 2 26.5664 -76.3487 -18.9121 156.614 -144.051 153.08 -35.3317 -29.8017 -2.33183 -116.777 309.475
20238 2 24.4311 -75.4425 -18.1288 153.594 -162.329 127.372 1.39119 4.68781 9.65074 -117.113 304.239
29625 2 28.3784 -76.9133 -14.9128 121.886 -101.954 163.65 -131.739 -25.9975 -0.443612 -116.042 339.545
2148 2 29.9979 -81.0592 -19.3938 125.864 -135.16 235.276 -14.3839 24.0079 -40.8806 -122.157 340.628
27280 1 31.2822 -80.4872 -20.0906 -192.918 217.249 -445.872 -8.51825 -3.12837 87.5492 -282.231 599.348
24684 2 31.5034 -80.3216 -15.5117 90.3197 -107.913 196.576 1.24511 -30.8181 -33.0656 -128.927 278.898
1855 2 31.6149 -78.9716 -19.4562 85.7087 -77.8911 187.812 -15.693 -22.086 -77.1302 -125.954 271.925
2401 1 31.5032 -78.7707 -15.9535 -221.049 228.499 -386.527 20.9476 70.894 66.845 -285.4 577.638
21994 2 32.5158 -78.5551 -17.1802 97.2584 -97.589 213.655 22.9747 -30.6775 -65.0964 -126.12 302.18
24791 2 30.0309 -78.4095 -16.4903 136.908 -105.377 153.559 -87.4863 -39.0545 -48.5288 -120.605 312.436
29765 2 34.0848 -78.2234 -19.5648 127.826 -83.738 193.517 26.7944 -31.4361 -54.9368 -130.401 277.75
29500 1 32.6251 -78.02 -18.6825 -172.543 127.46 -390.915 -10.2664 47.8737 149.301 -281.755 526.559
29287 2 32.3065 -76.4133 -18.5959 72.7726 -49.3228 164.789 -29.6129 -4.58453 -74.6446 -123.25 232.418
19885 1 31.9049 -75.1335 -19.5378 -282.529 162.454 -262.902 113.575 -10.8714 63.1579 -285.617 490.592
27275 2 30.868 -75.9131 -20.5212 144.354 -102.442 133.829 -58.985 20.2067 -30.9284 -123.696 270.1
27195 1 34.8386 -78.5915 -20.9424 -370.657 179.35 -341.17 -111.185 84.3982 107.646 -268.409 616.747
27479 2 -23.7978 -74.7906 -16.0711 55.5733 -78.3697 228.381 3.08627 13.2764 -11.2728 -123.883 268.119
24594 2 -24.8022 -74.5901 -18.3938 105.617 -80.229 220.773 -51.6745 6.29728 -29.9241 -125.461 282.872
2543 2 -20.1971 -72.688 -14.9344 119.88 -61.7818 179.639 71.1547 -45.1538 -79.5826 -127.521 296.199
2678 1 -20.6184 -71.1443 -15.0354 -306.643 273.542 -386.009 -116.043 124.671 156.924 -275.286 741.527
24857 2 -20.7244 -70.6874 -16.583 179.431 -169.241 183.428 40.9998 -0.0875182 -49.9399 -133.1 368.112
2122 2 -24.6611 -70.0671 -18.0859 192.32 -174.228 175.81 17.2135 12.4653 -5.48511 -126.066 360.588
7228 1 -19.9824 -69.5082 -17.3952 -311.697 429.056 -350.788 -2.37935 -78.2158 32.8338 -255.64 775.116
12260 2 -20.0701 -69.404 -18.9727 156.358 -211.604 234.072 1.33148 65.6968 10.7416 -136.348 428.171
27356 2 -22.5562 -69.3686 -19.7925 255.245 -204.64 191.089 0.185311 48.3544 20.1043 -127.896 440.832
7405 1 -21.0267 -69.266 -20.2864 -365.717 381.787 -536.072 18.3789 -105.157 -28.7404 -275.336 867.058
2415 1 -24.0542 -69.0201 -19.1636 -482.778 401.871 -338.321 -35.8064 -55.0162 -4.34599 -279.252 829.856
12269 2 -19.0956 -72.4384 -20.4909 79.5803 -66.8125 257.609 65.1927 78.6019 43.99 -132.141 340.995
29670 2 -24.9784 -73.1198 -20.7092 141.473 -80.9906 200.434 -39.7567 -53.0493 -1.2984 -127.511 281.554
183 1 -16.9012 -74.4031 -15.7285 -256.077 143.2 -358.486 -121.978 -71.6543 154.337 -276.317 585.061
27456 2 -17.5869 -74.1075 -19.1257 62.8869 -78.4508 251.927 100.291 58.1305 7.17656 -132.594 350.568
7392 2 -16.4191 -72.9029 -16.3256 145.512 -63.2292 140.326 25.3309 51.3924 -48.0804 -131.272 243.518
6943 2 -14.0896 -72.8592 -20.0608 155.948 -260.537 256.081 69.0144 21.0363 -23.2423 -121.064 492.369
29800 1 -17.6821 -72.639 -19.8246 -144.191 158.473 -522.29 -122.833 -77.314 -83.6037 -269.605 658.154
7466 1 -15.7632 -71.4955 -15.8163 -473.514 226.289 -254.074 -7.46882 -178.884 84.3159 -272.438 708.383
29753 2 -17.4389 -71.3697 -18.8723 80.2958 -111.929 245.675 30.9543 25.0552 48.1133 -135.659 328.319
4713 2 -16.8723 -70.6899 -14.9846 160.124 -137.228 176.238 38.1027 67.2848 -26.5158 -133.342 336.92
29936 2 -15.8693 -70.5418 -17.0999 217.818 -159.128 144.665 34.3792 44.185 -12.6247 -134.248 360.203
27640 1 -17.0596 -70.0675 -18.073 -260.089 326.906 -414.725 -95.5905 -32.8255 -0.59499 -257.502 699.923
29850 2 -18.3253 -69.7015 -16.9457 99.0962 -207.166 159.7 42.8023 34.619 -15.3538 -143.219 354.724
2029 1 -18.0261 -69.6378 -15.2036 -244.036 338.081 -398.371 -107.34 -64.0562 -21.2352 -259.748 707.635
7186 2 -18.0109 -74.0347 -14.6424 88.944 -43.9597 179.208 57.2223 -11.5291 -90.9719 -128.827 269.92
15059 2 -13.3004 -70.7042 -18.806 224.867 -214.642 214.013 14.9219 28.183 -11.6788 -121.744 438.15
9891 1 -12.8685 -72.1972 -19.2101 -486.397 535.389 -467.469 -85.0316 -70.4917 63.0463 -295.472 1036.14
7135 2 -12.2311 -74.5609 -15.6841 212.096 -216.826 106.278 93.0132 59.7377 -20.7549 -126.777 433.285
12202 2 -10.6527 -74.7502 -17.6043 200.79 -251.355 173.991 104.987 -4.09363 -25.0837 -120.928 477.537
12086 1 -12.1335 -74.4259 -17.2849 -439.746 437.792 -313.97 -165.977 -80.1787 94.1153 -287.179 896.673
7449 2 -12.7168 -73.0713 -17.8727 240.206 -213.744 193.366 50.4166 54.1836 -61.212 -122.634 463.331
4919 2 -7.71487 -73.1643 -16.0347 224.732 -317.86 171.144 92.7096 6.41451 -82.2726 -120.853 560.729
2110 2 -11.5486 -72.2317 -20.1438 268.667 -350 273.029 40.8735 -19.8455 -20.2549 -115.644 626.81
29872 1 -8.51809 -71.8227 -15.7328 -480.798 515.727 -319.647 -154.875 17.4247 87.4874 -290.99 976.869
7330 2 -10.1211 -71.6098 -15.843 242.214 -228.205 139.899 46.3902 13.1527 -21.6753 -123.892 438.196
4703 2 -9.33295 -71.3608 -19.235 262.587 -362.621 262.982 78.8803 -31.7421 -17.777 -117.245 643.249
9709 1 -7.98109 -70.8611 -18.5445 -421.55 646.156 -474.591 -231.39 50.8878 35.9553 -296.717 1171.2
17387 2 -8.17421 -70.7861 -16.9239 242.498 -270.556 183.219 99.5937 -43.9616 -13.6367 -119.7 521.956
9796 1 -11.0669 -70.3768 -15.675 -468.511 339.021 -247.891 -52.309 -99.3055 -26.3589 -289.883 750.001
9609 2 -11.5143 -69.9077 -17.1535 236.32 -222.173 166.311 -4.45193 57.1758 10.2648 -119.977 439.546
5080 1 -12.7491 -69.3083 -18.0417 -421.111 432.318 -399.275 -0.737597 -90.7718 28.4084 -292.916 858.675
5072 2 -10.2556 -69.2388 -14.8851 208.615 -125.43 105.336 47.3865 36.3415 71.5785 -120.436 337.375
2475 1 -9.97546 -72.1315 -20.4856 -516.896 757.936 -594.831 -126.618 85.5321 9.19794 -304.054 1341.98
4907 2 -7.41533 -69.5488 -19.3419 154.927 -275.744 233.922 116.198 -6.23078 -5.88717 -116.828 516.203
27453 2 -8.94702 -73.3927 -20.8453 159.112 -308.237 316.305 66.0421 -45.9133 13.2887 -115.64 580.11
12096 2 -6.9164 -72.0412 -18.8497 156.695 -341.189 252.508 90.6872 -9.92116 -33.188 -119.339 577.101
14496 2 -2.49338 -74.3107 -17.5864 256.325 -404.882 239.649 -53.4259 23.4472 -76.499 -102.227 673.955
12376 1 -6.82793 -74.4049 -16.592 -521.039 700.681 -414.603 -135.67 -44.6448 165.612 -306.71 1231.82
7191 1 -2.93298 -74.0682 -19.1992 -518.137 839.591 -491.974 45.7394 12.3976 79.3517 -328.674 1354.33
19582 2 -1.67718 -73.7706 -20.1286 274.548 -407.048 203.542 -38.4926 5.47051 -32.7738 -103.619 654.962
4927 2 -5.70858 -73.7741 -17.518 223.648 -351.699 226.743 35.6559 25.9851 -66.1029 -112.653 593.096
7414 2 -4.0424 -72.9276 -19.2771 243.955 -340.763 245.39 8.11945 -5.42921 -8.94221 -108.915 585.885
14968 1 -5.42368 -72.4459 -18.4753 -412.897 633.405 -458.915 -111.82 -38.1948 66.0383 -304.5 1095.44
7391 2 -5.03806 -71.1858 -17.6025 214.872 -283.624 185.218 94.6872 43.4584 -40.4317 -117.212 521.596
7475 2 -3.89571 -69.9556 -15.7059 221.758 -278.187 191.13 53.0508 49.6302 -71.7535 -116.398 516.574
12372 2 -2.18299 -69.9408 -20.3657 232.714 -292.652 184.409 38.9455 -46.4085 55.6832 -110.753 522.76
2690 1 -4.5991 -69.6799 -17.1403 -444.526 555.639 -351.139 -181.306 -73.9156 60.5004 -298.412 1020.61
7395 1 -2.12622 -69.0799 -18.98 -423.348 581.523 -402.593 -99.0504 27.7075 -4.31742 -306.777 1010.51
2783 2 -3.58589 -69.0579 -18.333 227.349 -285.669 166.046 89.4932 18.4994 -19.3848 -117.428 511.544
12216 2 -1.56301 -70.0259 -14.9946 256.846 -279.037 154.773 3.21754 55.2566 -121.219 -115.267 544.209
19649 2 -1.19599 -69.5601 -17.714 224.032 -304.726 206.592 3.14721 29.6405 -45.8931 -112.375 528.82
10268 2 3.84139 -74.7201 -16.848 109.076 -208.464 247.861 -60.885 -22.9905 -10.5533 -113.647 420.955
19762 2 4.62239 -74.289 -19.2292 96.816 -175.504 217.423 -45.5958 10.9854 -34.1944 -115.778 362.842
19597 1 3.86619 -73.5027 -15.84 -273.27 370.341 -428.023 106.008 114.08 55.4386 -305.713 787.249
12299 2 2.48275 -72.7141 -15.8617 171.353 -230.993 200.426 -60.1672 -63.5555 -33.1478 -112.446 447.995
2204 2 2.33669 -71.7351 -20.4008 220.434 -259.008 155.059 -37.2304 47.136 -35.7775 -111.438 466.325
9975 1 1.73567 -71.3735 -15.4288 -469.483 528.054 -314.981 137.642 68.1503 158.633 -306.607 1005.53
12187 2 0.524851 -70.8791 -16.3022 263.222 -290.255 190.337 -69.4418 22.1286 -78.104 -109.88 552.762
12195 1 3.70775 -70.808 -20.2769 -342.929 468.191 -327.03 26.0785 -96.246 87.2813 -304.604 835.438
24695 2 2.87148 -70.2399 -15.6673 218.349 -256.769 157.278 -49.7711 -48.9221 -70.099 -115.748 479.379
17445 2 4.44931 -70.1575 -19.039 133.465 -249.526 232.791 3.10035 7.2612 -54.3937 -114.821 451.277
17283 1 -0.484468 -69.665 -16.2688 -492.632 585.093 -337.231 56.6679 -115.906 195.635 -308.147 1087.62
12087 1 4.15801 -69.524 -15.1118 -364.789 446.391 -303.568 48.4935 97.0347 141.437 -299.856 841.079
14604 2 4.70662 -72.0917 -20.7359 126.855 -155.796 134.553 -25.4354 44.4095 -40.2677 -115.774 307.975
11882 1 -0.479491 -74.5347 -20.9285 -595.76 804.402 -341.187 174.997 -116.985 103.305 -327.538 1354.17
17475 1 4.9235 -73.6037 -20.6751 -232.945 282.801 -311.955 108.799 -63.2658 60.9622 -302.438 609.635
15090 2 5.10801 -72.5333 -16.2555 130.516 -198.034 198.291 -51.5564 -32.3859 -40.1283 -115.378 388.276
22268 2 9.55625 -74.2228 -18.5762 238.659 -247.546 138.125 20.9559 3.64049 -98.1976 -113.446 477.397
14954 1 10.6335 -73.0521 -18.4713 -480.278 445.514 -235.692 -29.8877 64.2993 235.786 -308.33 933.994
20111 2 7.5978 -72.0465 -15.5365 225.89 -203.098 153.898 -70.3871 -22.2605 -49.5404 -113.212 426.664
17473 1 6.32058 -71.4411 -16.3128 -341.753 414.631 -388.385 90.3195 65.3944 142.928 -306.062 841.516
19904 2 10.2664 -71.5238 -18.653 248.421 -178.061 115.078 -31.6832 -22.2429 -121.595 -111.025 437.78
12192 2 6.58012 -70.8112 -17.7788 161.035 -212.311 213.341 -16.4252 -32.003 -89.5888 -113.56 435.444