ITEM: TIMESTEP
1640000
ITEM: NUMBER OF ATOMS
29952
ITEM: BOX BOUNDS pp pp pp
-2.5164588948708733e+01 3.5149883297801296e+01
-1.1355420217292732e+02 1.2353949651492732e+02
-2.0943485494817040e+01 3.4811338639539180e+01
ITEM: ATOMS id type x y z v_StrAtomXX v_StrAtomYY v_StrAtomZZ v_StrAtomXY v_StrAtomXZ v_StrAtomYZ c_PEAtom v_VMS
29404 1 -20.5608 -96.7657 -15.5008 43.025 -202.881 -89.0822 149.199 -130.522 86.4341 -225.308 430.973
7016 2 -20.8762 -96.3128 -16.9975 -53.602 64.153 132.04 -125.584 103.716 12.6211 -140.832 326.392
27201 2 -21.2345 -98.0321 -14.8012 -61.4648 126.53 50.9898 4.46847 43.4624 -40.2428 -150.176 193.475
24293 2 -21.3063 -95.3523 -15.1623 25.5383 105.481 15.4757 -127.275 91.3297 -81.8817 -157.09 317.852
4794 2 -18.9714 -96.6071 -15.157 14.9163 62.4998 5.74492 -49.9638 -17.0416 -10.2278 -158.564 107.046
9507 1 -17.4238 -96.494 -14.8997 -106.704 -117.233 118.952 66.2538 190.832 -73.9133 -230.772 438.425
24379 2 -16.5661 -95.2441 -15.2727 107.503 85.9533 -88.9699 15.669 -103.728 68.8717 -144.723 286.491
21984 2 25.3267 -96.416 -19.6218 17.5125 131.358 0.831546 76.8415 -22.7002 36.7852 -79.1757 196.106
6997 1 -21.2763 -94.8051 -16.7291 14.5937 -154.391 -131.481 328.923 -259.822 145.768 -240.308 784.887
1988 2 -19.8589 -94.0921 -16.5978 49.0254 85.7529 55.7414 -109.744 109.354 -73.3988 -146.819 298.857
27153 2 -22.3914 -93.7156 -17.0839 22.9979 54.1184 71.4446 -174.021 122.493 -104.851 -144.508 413.101
1996 1 -19.4154 -93.0284 -15.4426 -263.321 -329.365 -36.1304 71.9627 -294.455 102.461 -230.081 614.918
29458 2 -24.4558 -92.3133 -17.6982 137.661 -73.1842 137.544 -142.641 121.353 -133.915 -140.299 451.054
2390 1 -22.9821 -92.1733 -17.1096 -199.187 -7.87912 -208.252 263.375 -195.25 320.424 -241.445 817.86
9587 2 -19.6557 -91.5526 -16.0564 128.893 112.19 100.685 -19.8021 186.949 -123.546 -146.029 390.411
29892 2 -23.4137 -91.5582 -15.642 166.813 -21.3654 111.543 -120.904 84.0286 -106.535 -151.483 356.581
29586 2 -21.7724 -91.1472 -17.5016 45.3532 13.8362 175.163 -52.7299 101.994 -204.861 -144.326 432.884
9698 1 -20.3499 -90.3941 -17.0385 -134.558 -92.1953 -417.203 -11.201 -298.626 422.2 -249.472 946.744
4598 1 -23.922 -90.0797 -15.0829 -389.101 118.409 -414.36 139.377 -148.953 156.41 -235.836 685.021
24802 2 -19.5808 -89.9463 -18.3583 28.2586 -19.7945 297.892 -2.67838 94.6703 -255.27 -133.248 557.104
7203 1 -19.2417 -89.9877 -19.9429 -76.9958 89.8722 -587.104 82.5982 -78.6435 371.765 -286.069 909.299
27010 2 -17.9274 -93.3544 -14.9832 107.174 178.052 -39.2894 43.0505 48.8505 26.9378 -152.971 227.492
29472 2 -15.3663 -92.5101 -14.9215 158.447 55.3473 -71.1217 52.6993 -79.8488 81.2311 -139.39 294.818
4823 2 -16.8138 -90.3358 -14.8274 128.983 -10.962 59.0238 19.4132 40.2539 -39.8608 -150.797 159.521
11992 1 -16.3788 -93.7601 -14.6392 -240.476 -307.962 201.41 -161.117 108.651 -171.359 -241.618 656.522
24584 2 16.2155 -90.3425 -17.4174 291.579 -293.177 72.0224 -23.4437 -26.1742 -41.329 -120.401 520.179
22086 2 14.6412 -90.1958 -19.4452 218.132 -310.711 139.683 14.4755 -5.12516 4.07391 -115.744 495.075
19480 1 14.8937 -89.5907 -17.9786 -563.007 685.229 -276.333 40.7185 95.349 41.9957 -287.646 1148.9
25055 2 21.2421 -92.8861 -16.5591 232.178 -234.11 12.763 -14.6658 -30.0303 -12.4421 -113.897 408.744
24796 1 22.7786 -92.763 -16.0761 -472.445 586.14 -142.569 117.154 99.8199 59.3509 -291.79 980.741
19527 1 20.193 -91.6975 -16.2046 -592.798 565.524 -67.429 142.348 6.99904 89.979 -293.378 1046.14
22008 2 18.9072 -91.5798 -17.0683 273.283 -247.928 15.5352 -55.5523 -5.34109 -40.0299 -115.809 466.803
22077 2 21.1937 -90.3382 -16.3664 315.964 -313.206 92.0844 -95.7886 -19.7213 -33.5533 -129.191 580.68
19586 1 17.8992 -90.3957 -17.4201 -621.698 611.057 -146.475 141.52 11.3077 84.742 -289.26 1114.32
14975 2 18.2618 -89.5971 -16.0434 342.99 -330.723 116.09 -88.2484 -16.0074 -27.3312 -128.342 615.533
22275 1 22.3218 -89.2262 -16.2689 -660.554 517.013 -283.579 171.514 21.1189 43.8968 -275.059 1086.38
22171 2 18.3479 -89.3199 -18.5622 310.664 -352.695 154.325 -77.3745 -8.18044 -32.2024 -127.523 618.103
2036 2 25.5972 -94.9889 -17.246 53.597 -81.3025 10.6228 -29.1844 -33.2597 -27.1368 -102.578 149.434
24553 1 25.5001 -95.0408 -18.89 -128.724 123.451 -128.697 -35.1136 120.749 18.3674 -338.755 334.72
24779 2 26.9156 -94.3733 -19.5353 65.4407 -163.423 155.311 -14.1377 -97.8176 -19.4096 -111.268 333.853
29558 1 25.3141 -94.286 -15.8461 -239.176 344.114 -155.284 90.9164 21.1035 74.7001 -311.309 584.128
2035 2 23.7649 -93.9742 -15.6513 165 -197.054 49.7987 -32.0817 -34.3307 -26.249 -112.669 333.671
27478 2 24.346 -93.9024 -19.1426 126.997 -218.036 132.434 2.64319 -34.2104 -8.25095 -107.596 353.114
24589 1 27.9752 -93.5624 -20.2719 -127.727 450.305 -453.59 35.0052 98.4939 26.6147 -283.861 814.599
17375 2 25.9706 -92.7809 -16.1983 220.439 -297.461 169.696 -22.5136 -15.91 -27.3317 -124.386 499.036
20053 1 24.1196 -92.3533 -18.953 -426.838 687.711 -454.774 136.077 80.6903 86.5151 -292.834 1171.19
22209 2 23.5298 -92.1542 -17.3893 236.059 -334.066 145.045 -73.6075 -56.941 -26.4317 -124.838 556.339
27197 2 28.1124 -91.9227 -17.4048 265.29 -285.127 250.588 39.5754 -6.47515 10.3664 -127.833 547.932
26997 2 23.3762 -91.6582 -20.1659 226.196 -370.597 279.485 -72.4744 -7.64523 -45.2227 -121.525 642.552
29747 2 25.6378 -91.8678 -18.5884 243.993 -349.184 239.601 -53.1628 -66.2044 -23.9799 -127.048 610.431
21997 1 26.4981 -91.6916 -17.2333 -556.225 614.578 -423.529 -18.3767 88.7029 -17.8409 -278.225 1121.87
17203 2 26.2834 -90.2002 -16.7632 334.526 -279.194 194.029 17.6339 -18.3051 18.0497 -129.758 559.537
19964 2 23.9303 -89.3995 -16.1219 339.419 -270.715 154.63 -59.674 -8.1854 -4.47741 -129.369 551.914
22273 1 25.4802 -89.3141 -15.7648 -715.142 561.732 -367.258 22.4328 1.81153 -23.5481 -276.078 1144.73
2387 2 34.9579 -93.7378 -15.6697 183.365 -32.1325 44.5449 -130.275 52.573 -104.882 -138.517 357.773
27104 2 29.2162 -92.923 -19.3498 105.669 -234.954 270.07 29.6592 45.7543 3.51037 -127.83 456.077
2216 2 33.3176 -93.0838 -17.9582 153.925 -73.842 137.924 -80.6814 181.806 -74.8922 -126.762 428.957
6976 1 34.4904 -92.8249 -16.9437 -344.52 159.639 -213.899 248.545 -250.602 234.087 -259.11 862.266
22088 2 30.9477 -91.7411 -17.7307 228.13 -231.221 242.083 12.4326 100.194 -55.0679 -133.468 507.232
27015 1 29.4475 -91.7681 -18.315 -458.246 520.212 -552.759 -130.959 -115.36 -32.4492 -271.751 1073.93
27003 1 32.5965 -91.6719 -17.8346 -401.432 348.629 -432.408 81.8883 -269.178 215.657 -259.623 981.731
19205 2 33.5698 -91.5389 -16.5761 218.233 -155.914 161.098 -107.752 91.0052 -127.054 -143.3 479.562
27173 2 33.0184 -90.5361 -18.8871 164.629 -226.936 310.548 3.89928 108.097 -97.1873 -144.164 543.313
29215 2 29.3154 -90.1725 -18.7112 264.12 -246.79 295.922 70.9191 36.736 42.5198 -137.214 550.317
22398 2 31.4915 -89.5553 -14.8677 244.447 -213.146 265.213 -58.1763 -39.1033 -66.8995 -144.23 497.486
26883 1 33.6564 -89.2453 -19.5219 -359.789 442.453 -731.078 -60.6728 -94.1578 181.523 -235.481 1102.63
7026 2 -20.3705 -89.0677 -16.1276 118.308 -3.4087 260.972 7.89122 166.236 -169.192 -147.452 470.639
29408 2 -24.2918 -88.9639 -16.1341 213.532 -62.7365 220.061 -30.7678 69.4545 -121.306 -149.423 373.668
27099 1 -19.9601 -87.5988 -15.5793 -268.542 158.437 -619.077 44.8577 -305.158 310.095 -236.827 1014.27
24306 2 -19.8658 -86.6505 -16.9118 108.128 -144.293 404.031 33.0405 104.23 -188.011 -147.87 606.53
22489 1 -22.614 -86.6694 -20.4652 -367.38 370.402 -583.05 -203.189 -7.51089 190.813 -209.06 991.569
24774 2 -21.7496 -86.5804 -19.0881 115.785 -176.02 378.546 68.3126 16.2717 -143.63 -159.594 554.573
7109 2 -19.3909 -86.2977 -19.3955 159.947 -193.798 306.501 92.3808 77.4935 -155.026 -153.46 560.512
14942 1 -20.4547 -86.0203 -18.2407 -202.865 349.402 -824.849 -135.012 -110.632 312.255 -225.549 1191.33
14959 2 -23.067 -85.3792 -15.6299 189.033 -166.388 296.094 0.998891 5.99224 -49.0153 -150.667 427.968
29403 1 -24.6103 -85.086 -16.1875 -454.506 343.729 -646.174 -87.0236 -14.009 43.6361 -236.208 925.166
4712 2 -20.7285 -84.4965 -17.943 141.685 -178.884 416.994 100.106 15.6027 -81.0366 -154.024 563.303
29603 2 -21.2958 -83.7623 -20.2626 145.021 -174.385 308.08 120.081 7.24767 -55.4958 -165.611 483.059
15248 2 -24.5002 -83.7812 -17.2455 208.784 -172.54 351.067 36.9892 -23.138 -22.3674 -148.904 476.571
2397 2 -24.0127 -85.8855 -20.5339 303.016 -217.653 270.31 106.716 -23.8544 -67.9294 -159.73 552.134
21893 2 -25.087 -86.5108 -16.7461 259.839 -156.734 290.697 54.0575 25.7976 -40.1507 -149.946 450.488
24761 2 -21.105 -86.9775 -14.6695 186.11 -95.2665 268.782 -40.8407 94.0457 -104.713 -150.278 416.775
27392 2 -22.7273 -88.1134 -21.0328 157.058 -140.612 290.738 118.835 42.637 -60.7521 -154.97 452.948
7200 2 -18.4158 -88.5702 -20.2242 163.541 -154.592 236.448 -16.295 33.6377 -150.748 -130.292 449.539
2497 1 -18.3338 -86.9435 -20.3845 -479.644 426.704 -441.964 -133.544 -104.959 247.152 -249.506 1028.85
9677 2 -17.049 -86.061 -19.9798 309.402 -240.954 193.271 90.5558 53.3273 -122.492 -136.763 574.987
14870 1 -16.295 -84.6254 -19.7927 -663.55 545.445 -435.397 -218.329 -141.984 179.778 -256.641 1240.29
7102 2 -15.1138 -84.3665 -18.7398 337.521 -295.816 215.489 100.1 77.0197 -74.1486 -135.85 634.878
10065 2 -14.2567 -83.8716 -16.2386 292.108 -243.676 196.741 118.117 5.95342 -105.99 -136.256 566.327
29845 1 -13.8225 -83.8691 -17.7855 -656.509 622.443 -381.455 -199.137 -62.7731 104.674 -260.861 1234.2
4872 2 -17.4563 -83.4777 -19.4923 292.485 -227.839 260.028 143.776 75.5442 -57.896 -148.222 586.595
4706 1 -14.7656 -83.0884 -14.8483 -597.691 402.775 -381.355 -208.136 -10.4048 197.343 -261.322 1038.47
2324 2 -10.2155 -85.4895 -19.6493 139.653 -276.235 253.548 69.4532 -97.2107 -42.4857 -121.508 530.602
29493 2 -12.5221 -84.7169 -18.1884 274.976 -295.975 170.186 94.4707 -18.325 -55.4776 -131.352 560.492
4813 1 -9.64736 -84.4346 -20.6654 -339.992 799.883 -716.992 -183.817 245.32 46.4083 -278.022 1469.54
2391 1 -10.9961 -84.4078 -18.6414 -445.502 698.977 -448.964 -165.001 117.917 42.3121 -272.358 1201.07
9811 2 -8.16128 -84.0236 -20.1557 191.762 -416.929 358.334 100.884 -65.6691 -8.03707 -126.01 737.093
15212 2 -10.2075 -83.6487 -17.4763 236.882 -361.07 230.643 104.192 6.48891 -17.0582 -133.425 622.433
27092 2 -10.7792 -83.4853 -19.9847 249.857 -412.752 343.64 65.5804 -104.935 -15.9345 -132.74 746.114
12129 2 -3.70806 -84.9993 -19.736 329.545 -317.854 243.651 1.84985 80.2579 -30.4854 -92.9905 626.911
9904 1 -4.04427 -83.6563 -19.0152 -695.195 921.683 -590.739 -48.6121 -161.489 71.2367 -319.844 1599.02
29863 2 -5.68384 -83.4802 -18.9234 303.065 -440.786 329.967 80.2808 78.6676 -16.9824 -114.944 782.825
7236 2 -3.27265 -83.3394 -17.5681 343.117 -511.083 281.988 -25.5171 62.6357 -99.2876 -111.775 851.16
12279 1 -6.69992 -83.2769 -20.1578 -504.736 871.624 -742.071 -214.789 -31.9454 -40.2968 -287.735 1556.82
17461 1 4.5266 -86.569 -20.2598 -147.043 697.549 -514.96 164.916 -17.1488 148.454 -263.856 1143.69
17291 2 4.6611 -86.0855 -18.7369 85.2614 -386.976 392.897 -79.2822 39.4459 -51.8913 -134.673 703.227
4338 2 0.437931 -85.8525 -16.0185 258.91 -364.655 240.067 -34.1832 -60.235 -64.1544 -109.863 635.749
20152 1 4.40272 -85.0174 -17.5443 -312.822 845.98 -910.785 131.14 -132.289 86.7716 -262.166 1587.45
22379 2 2.93408 -84.9303 -16.9481 175.857 -443.901 384.113 -66.4517 -29.6871 -54.1897 -130.856 762.391
17344 1 1.3484 -84.7403 -16.6589 -546.997 912.485 -661.079 193.048 134.719 146.993 -291.864 1593.95
9790 2 1.68961 -84.4225 -20.6098 266.035 -431.566 269.729 -134.983 33.4328 -45.6545 -128.807 743.979
12204 2 0.830926 -84.2698 -18.0955 297.541 -473.763 320.737 -134.015 -54.3715 -69.7024 -119.24 831.061
17199 1 1.13207 -83.4723 -19.4601 -635.898 902.706 -592.587 355.143 -1.68831 129.615 -284.995 1652.67
4992 2 1.16589 -83.5157 -15.654 342.931 -439.493 302.391 -107.649 -55.3493 -61.3435 -124.772 798.347
19486 2 2.94703 -86.7633 -20.6416 123.295 -308.332 191.462 17.3124 25.2361 -78.2413 -125.93 491.473
19968 2 4.66898 -83.5057 -18.2484 182.426 -358.704 430.626 -43.9181 65.3712 -26.3423 -137.811 713.738
19694 1 9.9435 -86.8851 -15.696 -590.65 714.37 -537.319 172.08 217.423 83.2834 -267.348 1373.97
29564 2 9.66621 -86.1782 -17.1759 286.777 -369.834 313.546 -92.6926 -76.1529 -33.7526 -130.049 704.289
17096 2 5.39356 -85.0214 -16.3285 210.832 -415.91 411.575 -49.4601 92.4692 -65.5965 -138.638 777.699
17006 1 10.396 -85.0486 -18.054 -570.419 669.202 -572.493 208.719 135.805 53.8702 -277.204 1316.8
12116 2 9.45553 -83.7691 -18.3899 300.647 -336.769 281.518 -50.3409 -9.01621 -51.6499 -130.598 640.564
12012 2 7.41193 -83.723 -15.0877 277.057 -297.959 258.465 -44.6928 -42.3034 -93.0254 -143.976 598.014
14595 1 6.05051 -84.552 -14.921 -494.944 709.769 -549.647 135.312 -31.4966 132.278 -243.945 1276.96
17178 2 9.07765 -88.0812 -14.9157 219.504 -271.093 190.851 -62.9718 -60.7875 -31.9615 -131.421 503.483
17384 2 11.0091 -85.5298 -19.4252 312.292 -349.947 241.819 -111.061 -61.6112 14.3264 -124.942 667.73
22101 2 13.5484 -89.1849 -17.0623 299.38 -355.883 153.946 -26.3233 -111.26 -9.02519 -122.82 628.238
9708 2 15.3472 -88.0589 -18.3047 335.927 -441.451 187.646 -28.8813 -49.8585 -19.8589 -132.39 722.618
19779 1 12.9777 -87.7402 -16.5075 -732.008 856.827 -461.07 181.141 265.064 12.9907 -278.421 1573.86
17465 2 11.4349 -87.4239 -15.9791 325.689 -388.465 249.591 -98.6587 -138.735 -18.343 -129.201 741.225
12511 2 13.9612 -87.3815 -15.2809 387.633 -442.818 257.202 -72.7456 -121.547 16.3124 -129.51 811.997
12561 2 13.3595 -86.6649 -17.7051 373.044 -430.279 226.435 -103.579 -94.2849 -17.2522 -128.534 780.253
19792 1 14.8205 -86.5101 -18.3069 -759.04 791.005 -407.552 93.9747 136.642 77.6651 -275.074 1442.9
22116 2 15.3364 -86.19 -19.8165 354.235 -354.381 217.667 -22.708 -38.3461 -70.9001 -128.608 667.122
12594 2 15.6785 -85.5284 -17.3654 364.39 -327.64 204.953 -22.9865 -77.4138 -22.9705 -127.068 644.312
19368 2 11.3674 -84.3929 -16.9577 299.96 -297.141 239.815 -85.4812 -86.8674 -58.9389 -129.797 615.804
22372 1 11.5224 -83.442 -15.6884 -622.323 572.028 -490.753 51.2494 105.253 174.311 -274.531 1191.18
20080 1 16.1592 -87.0865 -20.9358 -659.69 779.249 -549.351 -3.68214 74.0471 69.8862 -277.624 1398.25
27089 2 16.315 -88.476 -14.865 375.648 -415.235 217.364 -60.2952 -97.2677 5.34725 -128.357 751.492
4791 1 11.4865 -86.0279 -20.8517 -654.082 720.527 -412.68 157.978 95.1145 -71.5784 -287.437 1316.58
19772 2 21.9703 -88.1985 -17.4405 335.434 -270.683 188.835 -75.7443 -32.5369 -45.8526 -128.913 571.583
19598 1 18.5105 -87.819 -19.0055 -674.388 730.926 -461.489 81.6361 77.7717 67.6574 -271.252 1331.51
19602 2 17.5653 -87.4624 -20.2958 313.716 -396.251 278.464 -16.796 -57.3951 -27.4543 -130.477 702.323
22283 2 20.0726 -87.2255 -18.9581 358.254 -338.222 237.911 -40.689 -44.4574 -29.5655 -130.527 655.182
19489 1 21.1598 -86.845 -17.7704 -707.774 615.909 -389.48 52.1033 70.6449 82.6245 -273.855 1214.79
17265 2 17.864 -86.8405 -17.8493 329.764 -369.676 175.448 -5.36558 -32.2969 -43.4487 -134.855 643.408
22582 2 20.3177 -86.4097 -16.4292 335.236 -321.937 197.78 -7.83044 -8.04151 -2.49566 -131.439 600.696
22199 2 22.4271 -85.8471 -18.1024 335.786 -294.244 207.06 8.90852 -41.4392 -21.8463 -129.532 582.433
17355 1 19.1831 -86.0976 -15.3343 -685.519 644.869 -458.574 13.4998 25.3146 -72.4689 -275.249 1240.05
20041 1 17.3094 -85.3571 -17.3401 -639.995 630.426 -412.297 -0.467674 85.2607 44.1546 -275.275 1184.99
19685 2 17.9762 -85.2156 -15.9364 321.363 -317.3 236.614 -1.35748 -44.3593 41.4329 -128.17 609.923
22386 2 17.9902 -84.3661 -18.3634 281.429 -269.495 183.389 -26.0316 -24.4876 -40.2514 -128.855 517.503
24954 2 20.4203 -84.1046 -19.4108 361.397 -328.449 207.355 -9.4274 -14.4748 -43.1818 -129.718 632.329
22192 1 18.8858 -83.8787 -19.636 -650.009 567.536 -400.536 73.804 38.0177 99.4537 -276.304 1136.34
24784 1 21.8131 -83.3494 -19.246 -705.802 666.026 -447.6 -3.38561 -27.568 23.2535 -276.234 1264.24
24766 2 22.138 -88.2445 -14.8987 325.942 -256.145 169.008 -61.5576 3.05594 32.5512 -129.112 535.424
22399 2 23.0862 -84.217 -19.7857 331.433 -312.095 229.409 -4.44018 7.14616 1.80443 -131.249 599.252
22164 2 28.705 -88.0804 -17.1508 312.498 -270.79 234.391 -5.70171 -27.3314 -8.8676 -137.356 550.764
24786 2 26.3885 -88.0058 -15.8256 355.21 -262.82 201.651 -10.2376 -25.6805 -20.5976 -128.862 560.538
22408 1 27.9796 -87.679 -15.7475 -666.511 528.575 -457.117 36.887 67.0865 62.4036 -266.123 1118.53
27622 2 23.7404 -86.8114 -20.0281 308.369 -282.409 233.245 -48.5948 -40.472 29.3816 -129.297 569.973
4581 2 28.134 -86.0947 -15.496 304.963 -240.12 232.596 -98.8352 -42.8414 -28.8622 -132.814 547.92
22143 1 23.6832 -85.5436 -19.0727 -667.498 559.678 -411.077 24.7687 60.3746 -40.276 -274.917 1129.02
29801 2 27.3102 -85.2149 -19.8117 332.485 -264.114 236.322 -63.5115 5.86692 19.1613 -133.529 566.668
24582 2 25.0863 -85.1789 -18.5132 344.766 -273.721 197.108 -27.3827 -11.16 28.2006 -130.336 563.927
22371 1 28.5069 -84.6725 -16.1529 -594.874 440.093 -436.669 280.459 54.9813 14.386 -269.594 1085.41
19798 2 27.4226 -84.5135 -17.3216 312.387 -260.506 213.653 -116.08 -2.16207 4.12248 -132.34 567.344
24866 1 26.5627 -84.4622 -18.6335 -649.566 541.425 -434.435 143.542 9.08216 -46.4553 -269.532 1130.07
22572 2 23.7796 -83.5143 -16.0059 295.082 -311.062 264.43 28.8382 -25.9352 3.54134 -129.8 595.249
29625 2 28.4117 -83.5941 -14.9943 269.727 -203.303 263.445 -137.94 -35.9378 24.2152 -129.564 532.485
24756 2 26.4516 -83.0116 -19.1734 300.857 -268.827 229.236 -40.989 -31.1603 24.8493 -134.163 546.511
19712 2 31.0675 -88.8441 -17.3213 236.797 -246.322 266.479 -11.075 -18.0748 -32.4248 -147.529 503.118
22191 1 29.7255 -88.6953 -18.2316 -560.259 497.936 -556.858 -36.1246 -8.17341 -15.9818 -252.291 1058.81
4700 2 34.6675 -88.5505 -18.4791 238.324 -187.099 313.524 23.5376 47.4439 -134.057 -151.016 530.057
24783 1 31.8873 -88.5114 -15.9824 -479.672 451.203 -606.474 82.0882 61.5982 103.022 -238.546 1031.54
27183 1 34.9073 -88.1174 -16.929 -494.101 258.194 -525.878 -3.28134 -112.612 203.352 -233.979 867.753
4481 2 33.4838 -88.4064 -16.2111 251.99 -174.426 268.836 -42.3553 22.1479 -69.1574 -149.821 458.802
24511 2 32.6663 -88.0672 -19.9583 187.387 -236.051 322.297 49.3887 7.57626 -29.1508 -152.787 514.457
2148 2 30.1469 -87.8457 -19.5721 287.552 -239.756 294.97 4.8462 35.7645 1.32615 -143.023 534.727
27280 1 31.3788 -87.0806 -20.2791 -515.045 444.342 -579.874 -14.7632 -49.7564 35.2427 -238.763 999.315
24684 2 31.416 -86.9671 -15.7229 233.3 -247.192 295.481 -15.7642 -30.7329 -19.5938 -146.697 518.987
1855 2 31.4745 -85.6376 -19.6137 253.432 -196.489 256.685 -29.0529 -2.98458 -51.893 -146.563 463.185
2401 1 31.4684 -85.3462 -16.025 -514.367 488.404 -578.989 34.3502 50.6076 16.2404 -250.274 1042.37
21994 2 32.5021 -85.1433 -17.2717 243.99 -207.1 288.86 20.1919 -13.3982 -35.0642 -145.785 480.818
29765 2 33.8046 -84.8714 -19.7941 298.109 -188.185 248.46 37.6493 -24.7622 -31.1444 -150.168 473.08
24791 2 30.0781 -84.7138 -16.5896 298.301 -223.062 231.908 -97.2445 -34.8959 -24.8768 -136.94 524.873
29500 1 32.4639 -84.657 -18.8076 -504.596 332.13 -519.444 -6.77434 29.2076 109.005 -242.939 866.659
29287 2 31.963 -83.1326 -18.8915 264.882 -135.905 212.027 -29.3705 1.99378 -57.1848 -140.308 393.256
24768 2 34.8757 -84.5668 -14.904 229.615 -200.117 289.018 50.951 -16.3188 0.412047 -146.104 471.501
29707 2 31.6845 -84.5796 -14.6571 257.801 -244.116 309.585 -17.1698 -23.1115 26.3667 -137.294 534.009
7478 1 -21.0968 -83.1514 -18.7482 -349.869 313.129 -729.451 -230.259 20.5262 32.3223 -223.526 999.383
25049 2 -22.4835 -82.5073 -18.3335 204.687 -161.936 365.581 41.1164 -61.5755 10.2233 -150.713 485.847
1904 2 -19.7642 -82.2824 -18.7831 206.16 -142.664 323.406 170.483 40.5858 14.0413 -152.405 518.7
2222 1 -23.8906 -82.2473 -17.6592 -404.731 311.152 -683.068 -4.98324 65.1408 3.43382 -241.107 895.576
27479 2 -23.6241 -81.4016 -16.2792 166.549 -140.515 315.352 28.7826 -16.8779 21.1013 -144.319 408.41
24594 2 -24.8795 -81.3642 -18.5813 224.704 -142.391 292.058 -28.4488 -7.92154 -12.7528 -144.29 408.809
2678 1 -20.661 -77.8265 -15.0983 -505.324 402.948 -565.689 -129.981 164.958 102.51 -233.022 1023.36
24857 2 -20.6587 -77.3793 -16.7037 261.497 -240.052 298.311 50.7607 -25.443 -16.5113 -154.271 530.905
2543 2 -20.2822 -79.3916 -15.0211 231.117 -124.257 264.708 80.5652 -60.6331 -49.4756 -147.702 420.953
12269 2 -19.0557 -79.1491 -20.9457 196.736 -136.283 325.677 81.8186 43.0462 34.6938 -154.103 446.9
29776 1 -24.1235 -80.9584 -14.8099 -304.788 239.293 -568.225 -29.6584 12.2967 -30.7865 -248.316 717.419
4705 1 -18.1334 -82.2341 -18.8006 -469.734 336.932 -615.296 -293.239 -140.694 8.12857 -235.339 1052.08
7224 2 -15.7741 -81.9122 -15.4093 307.87 -208.867 214.443 53.0065 18.3195 -63.8078 -141.807 499.118
27359 2 -17.5329 -82.1266 -17.3185 235.35 -173.153 317.702 100.103 59.255 -16.9198 -145.215 498.75
183 1 -17.0412 -81.1776 -16.0577 -503.888 323.859 -529.223 -102.914 -56.4004 86.5074 -243.95 877.807
27456 2 -17.6621 -80.7889 -19.3787 211.97 -159.042 316.433 100.063 49.2128 20.8937 -150.785 475.324
7392 2 -16.4805 -79.6355 -16.451 274.149 -173.702 241.259 3.92437 40.5075 -32.842 -149.008 441.732
6943 2 -14.0232 -79.6188 -20.2698 356.183 -333.34 334.384 53.7679 4.97424 -30.6681 -140.034 687.353
29800 1 -17.6766 -79.3376 -20.1123 -427.572 328.899 -694.007 -136.072 -40.5972 -75.1203 -230.026 960.316
29592 2 -14.4296 -78.3847 -15.1877 381.553 -245.301 220.591 8.38792 72.3442 -19.995 -141.765 578.849
7466 1 -15.8321 -78.2621 -16.0049 -674.225 441.676 -459.048 13.954 -120.31 57.3217 -237.685 1051.33
29753 2 -17.5205 -78.036 -19.1223 197.689 -207.162 348.165 27.9887 11.7054 50.4266 -155.623 507.797
4713 2 -16.8732 -77.4578 -15.164 264.402 -222.752 270.056 19.8628 55.7869 -18.0413 -151.647 501.599
29936 2 -15.8501 -77.2509 -17.3528 343.281 -253.812 246.472 17.5966 26.3749 4.69198 -151.462 557.826
7186 2 -18.2026 -80.9672 -15.0005 216.441 -129.826 261.827 73.6732 -18.1593 -67.4508 -145.598 410.607
15059 2 -13.2241 -77.3609 -18.9548 380.399 -308.782 293.14 22.3614 17.556 7.08937 -139.8 651.938
2038 2 -13.2374 -82.3071 -17.9629 350.11 -319.201 205.784 64.3845 33.6108 -30.0118 -140.929 625.089
4921 1 -9.54885 -82.2448 -17.1396 -626.316 749.66 -504.731 -247.502 -72.0046 20.2393 -260.932 1393.32
29878 2 -9.43517 -81.9988 -15.5318 327.139 -366.72 244.084 92.39 97.3582 -69.0889 -136.003 706.451
17098 2 -8.0332 -81.856 -17.5271 327.716 -394.704 298.718 123.134 30.855 -23.6679 -133.626 742.836
12202 2 -10.6825 -81.2819 -17.8645 331.373 -317.582 250.536 96.0594 2.76169 -26.8521 -139.881 636.464
7135 2 -12.2256 -81.3478 -15.9165 331.689 -322.065 200.277 76.6013 27.9645 -4.26657 -141.859 615.431
12086 1 -12.2184 -81.1663 -17.4723 -681.406 590.975 -440.334 -119.902 -48.2711 71.6136 -251.519 1198.26
7449 2 -12.7331 -79.7086 -18.0242 360.591 -280.694 249.574 41.1911 20.3734 -45.503 -140.174 604.089
4919 2 -7.74963 -79.7579 -16.2106 326.976 -352.849 264.878 72.7463 42.3815 -65.6514 -139.323 676.755
2110 2 -11.5438 -78.9193 -20.2443 387.619 -399.198 351.623 41.8802 -10.9341 -11.2664 -136.318 773.341
9891 1 -12.8731 -78.883 -19.3816 -748.22 670.787 -623.899 -76.7826 -41.6436 52.4333 -257.586 1372.5
2475 1 -10.0291 -78.574 -20.7477 -746.662 860.707 -767.22 -93.9378 28.5002 -40.5605 -261.7 1628.17
29872 1 -8.34351 -78.3086 -15.9227 -659.552 625.52 -519.364 -120.736 -42.627 60.7574 -255.026 1245.46
7330 2 -9.94567 -78.2811 -15.8569 365.123 -296.308 221.517 51.0572 19.8426 -22.5076 -139.503 611.269
4703 2 -9.25808 -77.7272 -19.6349 367.212 -417.681 345.396 64.2054 0.422079 24.5671 -138.355 783.319
9709 1 -7.99116 -77.3248 -18.7581 -623.04 757.769 -656.436 -171.302 3.31779 -29.5647 -252.424 1429.88
17387 2 -8.12348 -77.3502 -17.1822 327.369 -346.567 264.72 72.4996 -6.4276 0.730477 -141.558 657.105
9796 1 -10.9651 -77.054 -15.8052 -741.938 533.576 -438.545 -65.5012 -67.5041 -54.7344 -257.994 1169.41
4988 2 -12.1678 -77.4925 -14.8201 331.79 -258.965 237.31 24.0853 53.6176 13.735 -137.153 559.494
4796 2 -1.25479 -82.5735 -15.8853 376.307 -497.356 294.452 -115.464 6.28862 -97.5005 -120.829 875.847
17286 2 -7.09383 -81.6759 -20.5219 248.857 -385.334 404.45 96.6227 4.55579 42.2148 -132.334 747.328
12096 2 -6.83614 -78.4092 -19.0786 276.676 -387.593 348.108 77.1923 19.8231 -1.18153 -140.703 716.146
9687 1 -2.64154 -82.1952 -16.6531 -729.092 1055.88 -637.942 159.869 -93.3164 221.093 -293.113 1811.41
7498 2 -3.70045 -82.2086 -19.7116 356.529 -549.324 338.459 5.68802 38.6312 -21.2986 -119.234 900.256
9689 2 -3.62587 -81.8076 -15.4512 346.566 -469.793 310.823 -38.4224 80.0054 -126.69 -126.567 842.807
17496 2 -6.14499 -81.7711 -15.5945 358.27 -423.363 281.559 24.1819 112.494 -132.138 -129.967 805.59
14496 2 -2.6198 -80.981 -17.7273 355.711 -487.532 328.926 -67.138 28.3932 -73.2648 -123.236 849.256
12376 1 -6.90658 -81.0601 -16.7832 -702.69 796 -591.862 -117.78 -103.423 132.875 -266.245 1489.61
7191 1 -3.04645 -80.7303 -19.2358 -753.08 995.292 -661.958 78.3023 11.5816 90.2981 -285.292 1717.28
4927 2 -5.76541 -80.3627 -17.6887 329.055 -409.124 300.527 17.0116 47.1727 -48.881 -133.961 734.422
19582 2 -1.73358 -80.5109 -20.1005 383.487 -488.787 314.181 -53.2164 -13.3834 -46.7494 -124.523 849.001
7414 2 -4.18539 -79.5796 -19.373 358.049 -410.237 334.249 -6.48795 -4.4269 -7.80926 -130.241 756.91
14968 1 -5.41202 -79.041 -18.568 -645.222 748.586 -631.443 -55.4965 -50.4592 39.2547 -262.823 1394.7
7391 2 -4.92661 -77.7514 -17.8259 330.168 -349.594 282.358 62.706 45.2163 -18.5808 -137.487 671.437
9901 1 -0.212252 -83.077 -14.7364 -741.209 842.837 -513.398 189.648 87.7359 153.013 -286.915 1549.67
14780 2 -0.116064 -82.6069 -19.9595 406.104 -490.62 262.857 -178.239 19.3918 -79.1787 -120.077 900.791
12465 2 2.39198 -82.5807 -19.0153 239.912 -367.993 339.171 -128.451 7.46269 -50.3289 -131.803 704.986
22178 1 3.86426 -82.1686 -18.4352 -364.106 596.66 -795.616 118.654 -78.8277 28.8445 -266.698 1259.85
10268 2 3.75586 -81.5118 -17.019 199.581 -268.192 379.408 -60.7575 30.2405 13.4119 -131.586 591.291
19762 2 4.49101 -81.0429 -19.4141 189.225 -261.859 362.343 -62.8477 56.5209 -12.4523 -133.721 577.439
19597 1 3.93012 -80.3973 -15.8825 -442.854 501.972 -661.787 146.994 -4.43314 26.7622 -266.675 1102.05
12299 2 2.61812 -79.5235 -15.775 248.948 -301.444 301.998 -72.8237 -4.76933 -19.7146 -132.034 593.37
2204 2 2.25995 -78.4473 -20.2487 297.402 -346.123 315.013 -51.3131 59.9311 -13.488 -130.778 667.074
9975 1 1.7878 -78.1825 -15.4485 -692.264 685.375 -526.913 162.04 -15.1671 121.846 -267.773 1349.61
12187 2 0.374609 -77.869 -16.2855 385.244 -367.863 298.204 -72.1694 58.2129 -50.3717 -128.027 736.614
12195 1 3.63403 -77.5915 -20.295 -486.277 659.313 -631.223 17.3204 -171.206 20.5226 -268.181 1260.77
11882 1 -0.590079 -81.3852 -20.848 -831.348 976.991 -559.3 219.199 -74.6001 124.335 -286.526 1749.1
14604 2 4.62998 -78.7793 -20.7365 223.512 -243.877 273.488 -36.4957 86.0006 -9.23982 -133.515 520.335
17475 1 4.90142 -80.3865 -20.8748 -436.643 475.466 -563.706 153.533 -141.17 34.907 -264.82 1047.92
14588 2 10.003 -82.9465 -15.3872 254.488 -286.085 254.066 -35.0866 -48.2609 -85.7285 -135.933 569.841
15090 2 5.26423 -79.521 -16.359 206.822 -262.857 316.842 -66.9693 -8.08501 -27.2367 -135.016 547.954
12490 2 7.62218 -82.4636 -19.7517 340.153 -379.287 296.675 8.84358 91.613 -38.9449 -131.804 719.839
22117 1 8.4183 -82.4378 -15.5073 -571.892 521.985 -529.212 44.5773 135.062 155.005 -258.085 1133.34
19850 1 8.65198 -82.3204 -18.5468 -637.679 728.618 -598.267 9.80418 -64.0015 132.014 -271.207 1370.89
12464 2 8.02051 -82.2211 -17.0396 292.126 -328.13 311.996 -20.3595 -17.9886 -70.8359 -135.053 643.976
22268 2 9.47686 -80.9606 -18.6572 319.425 -350.715 242.027 16.3427 -13.5955 -73.3851 -130.423 648.632
14954 1 10.6028 -79.7978 -18.6318 -677.396 673.826 -424.164 -44.5772 94.5749 179.305 -276.91 1294.99
20111 2 7.63476 -78.7177 -15.5073 311.691 -286.735 270.324 -66.2483 -16.7945 -29.1159 -134.303 592.981
17473 1 6.35678 -78.3112 -16.4059 -516.382 560.528 -617.385 130.557 13.9326 110.984 -266.344 1169.35
19904 2 10.2881 -78.1922 -18.886 346.632 -288.792 198.135 -21.0388 -30.1161 -96.4993 -126.467 602.861
12192 2 6.70047 -77.6442 -17.8821 267.129 -297.709 332.263 -46.423 -13.4887 -66.9792 -130.272 616.882
24745 1 10.5312 -76.9959 -19.9324 -738.038 620.213 -375.189 44.1018 42.1725 140.614 -279.643 1246.66
17177 2 16.0082 -82.4754 -19.7531 311.589 -233.945 158.245 -87.6514 -23.2153 -16.225 -126.377 512.759
22440 2 12.3854 -82.1675 -16.1378 337.012 -280.848 224.731 29.7574 -56.969 -84.9987 -125.469 599.209
14482 2 13.9763 -81.3473 -20.711 334.308 -319.306 184.14 -22.9316 -70.8449 -6.41264 -128.259 606.933
17498 1 12.8034 -80.7889 -16.8054 -722.678 685.435 -451.333 -133.487 129.713 85.255 -281.95 1341.66
19883 2 13.7084 -80.8915 -18.2199 382.912 -369.942 209.001 22.7233 -88.7955 -28.7248 -126.869 702.697
22744 1 13.4102 -80.3169 -19.7148 -731.411 713.159 -402.233 0.321521 178.983 52.1978 -275.685 1350.52
17277 2 11.8138 -80.119 -19.642 369.184 -356.557 200.894 17.977 -68.508 -71.191 -128.647 680.545
25157 2 11.4091 -80.1087 -17.2308 332.106 -354.433 233.831 53.5301 -73.6157 -45.343 -129.587 666.744
19870 2 13.5481 -79.8253 -15.8014 381.56 -358.341 247.375 66.3692 -43.7131 -7.97931 -126.086 696.644
22428 2 16.2803 -79.3233 -16.6938 315.301 -376.697 265.416 -41.7829 18.894 19.047 -129.977 673.962
22271 2 13.9709 -78.85 -20.0015 313.69 -329.248 207.848 -23.9739 -51.2877 -36.4848 -131.706 608.384
22563 1 13.8565 -78.2405 -15.4149 -762.098 753.678 -484.807 -76.2109 98.6218 0.240129 -276.694 1414.48
19681 1 16.1122 -77.7267 -17.142 -571.83 692.096 -561.106 73.5545 -44.9369 -9.47851 -271.923 1267.53
24775 2 14.5657 -77.5554 -16.7027 325.076 -357.426 277.484 -2.31634 -11.9369 -7.49293 -130.359 660.458
27383 2 16.6213 -77.7311 -18.6589 263.334 -321.827 288.095 -36.5131 9.63277 -13.0831 -130.148 601.919
14922 2 12.4237 -77.7793 -14.9447 392.234 -352.763 227.557 36.4459 -79.6848 -11.7785 -128.409 694.913
22629 2 17.1064 -80.1772 -19.6566 273.842 -332.688 226.25 -79.6148 -8.65689 10.5652 -130.323 600.71