ITEM: TIMESTEP
1760000
ITEM: NUMBER OF ATOMS
29952
ITEM: BOX BOUNDS pp pp pp
-2.5615833775063237e+01 3.5601128117061187e+01
-1.1995722937703572e+02 1.2994252371123446e+02
-2.1035324467156940e+01 3.4903177627851115e+01
ITEM: ATOMS id type x y z v_StrAtomXX v_StrAtomYY v_StrAtomZZ v_StrAtomXY v_StrAtomXZ v_StrAtomYZ c_PEAtom v_VMS
4896 2 -16.4024 -72.8547 -17.8078 -268.454 -35.1963 -589.258 -12.7215 30.6019 -30.9696 -171.078 488.187
7392 2 -12.0215 -72.3582 -15.3523 463.55 -528.297 -956.574 -150.945 33.5501 94.3258 -262.687 1300.15
4982 1 -16.1002 -71.6216 -17.0148 807.242 440.998 1594.18 304.663 2.94231 -159.226 -809.882 1181.59
7478 1 -10.6497 -71.4929 -15.3777 400.713 183.175 1818.96 100.796 -10.0509 -60.348 -725.211 1552.08
4812 2 -16.8077 -71.4767 -15.4989 -428.266 -106.588 -535.637 -249.244 -159.169 132.047 -260.209 681.34
7396 1 -13.2835 -71.3343 -15.548 432.453 223.709 1671.24 119.393 25.6426 -142.441 -737.946 1393.69
7481 2 -14.5166 -71.3548 -16.5244 84.6937 -165.5 -876.223 -128.783 331.976 -115.518 -278.171 1079.79
7486 2 -11.8888 -70.3741 -16.1103 223.5 -455.347 -1079.35 -83.7588 38.8154 -65.6157 -297.359 1145.56
4990 2 -16.9126 -70.2861 -17.6511 123.034 -372.316 -582.937 -406.25 151.927 -102.924 -274.524 995.092
7399 2 -13.7829 -70.5891 -14.3039 -472.916 -249.045 -991.017 -231.877 -133.417 102.718 -275.915 825.16
5095 2 -13.66 -57.5085 -19.9948 -490.681 -430.078 -560.833 -20.1735 5.62891 130.408 -259.22 255.304
2400 2 -19.5561 -69.1751 -18.3159 225.746 -485.692 -173.465 -235.398 522.701 -88.8975 -284.694 1179.45
4901 2 -20.9196 -69.2206 -15.0385 -68.5884 -624.285 -474.693 -64.3352 134.278 -130.125 -290.219 604.446
4904 2 -18.4238 -69.3209 -15.7535 -91.1887 -593.25 -257.603 -345.564 -7.75293 44.9564 -318.445 748.796
4912 1 -19.505 -69.0093 -14.43 225.17 714.313 1041.23 199.242 176.34 -139.153 -731.603 881.199
2494 2 -22.0107 -68.9382 -20.1818 81.3398 -594.145 102.928 -59.9869 715.374 -228.692 -260.933 1474.55
2316 2 -21.979 -69.0306 -17.4735 -376.531 -411.071 -3.67185 -42.2041 -272.711 -68.6754 -272.797 629.048
2486 1 -21.0674 -68.7104 -18.8108 1188.98 896.356 1111.65 110.799 42.9176 -101.394 -766.842 377.065
2410 2 -23.7265 -68.8881 -15.3601 217.704 -538.643 -609.168 -258.357 -176.777 -174.601 -282.105 1007.88
2402 1 -22.2103 -68.6782 -15.8716 459.488 797.338 1297.59 164.533 144.379 368.88 -766.644 1041.81
2416 1 -25.1633 -68.507 -14.7324 325.87 1042.33 1131.43 -134.969 -97.3051 213.767 -757.293 897.35
2407 2 -23.6863 -67.1849 -20.0638 -582.283 -629.947 -58.3666 44.8132 -223.594 188.904 -268.278 751.527
4985 2 -20.8866 -67.0714 -18.9471 -655.561 -284.491 -580.328 -108.786 -99.036 -110.867 -272.177 466.088
2408 2 -22.0536 -67.0961 -15.7989 -366.719 -470.115 -625.341 -158.052 -17.08 -129.172 -276.344 420.367
2401 1 -24.4172 -66.2289 -18.9763 689.663 1120.82 797.477 21.1559 124.12 246.788 -781.052 617.502
2409 2 -23.5522 -65.9487 -17.6096 -455.763 -548.632 -347.831 -10.164 -37.882 -74.5355 -284.899 227.11
2403 1 -22.4946 -65.6916 -16.4865 728.472 579.839 896.643 41.7315 100.896 -208.01 -773.388 490.854
4897 1 -20.4118 -65.5837 -18.6294 569.195 663.788 989.511 5.32145 147.457 475.645 -769.185 943.336
4905 2 -18.8235 -65.677 -18.4319 -290.454 -542.084 -663.766 -54.3899 -120.176 -135.376 -276.719 464.677
2406 2 -21.1753 -65.1448 -17.2935 -312.909 -480.187 -364.979 -14.0692 -208.405 -151.593 -279.216 470.973
2507 2 -20.5021 -64.7223 -19.9637 -521.765 -675.733 -344.651 79.0264 -172.943 -11.3138 -282.829 437.256
11 2 -24.6011 -64.8849 -19.8189 -418.531 -720.974 -470.693 -8.33391 32.0236 -147.802 -269.412 383.716
2412 2 -22.9147 -64.6348 -15.4322 -646.335 -464.088 -726.85 -9.08898 17.6474 62.9387 -266.157 259.685
4900 1 -18.1087 -69.2248 -17.4843 951.986 700.093 1132.56 91.5235 -133.902 325.834 -736.923 734.14
2440 1 -25.6663 -68.4224 1.50432 669.124 865.365 1108.95 82.353 356.048 -125.022 -786.758 770.192
4898 1 -17.2352 -70.1016 -14.7524 242.15 992.25 1224.34 278.926 -67.6659 145.159 -724.352 1049.27
7397 2 -15.9307 -69.2569 -14.5797 128.11 -596.273 -657.119 133.136 -12.1347 -136.529 -299.918 825.861
7394 1 -11.8401 -68.7096 -15.9175 496.235 330.429 1206.7 145.028 103.403 558.911 -745.554 1297.07
7402 2 -13.1822 -68.4629 -15.144 24.4118 -538.79 -920.443 61.8151 -16.2125 5.28063 -283.105 830.746
7400 2 -12.0507 -67.9793 -17.2634 -419.694 -298.431 -767.025 -144.041 200.306 -248.336 -282.881 738.299
4903 2 -17.5421 -67.7684 -17.7246 -502.183 -264.884 -572.303 78.651 -65.4573 -194.179 -283.785 471.588
7401 2 -13.7729 -66.989 -19.0751 -163.289 -512.964 -132.775 -61.4019 383.029 -124.337 -284.496 794.794
7395 1 -12.4781 -66.7022 -18.1474 568.916 1073.65 964.135 96.5096 -70.5451 521.695 -768.593 1034.82
7398 2 -11.3125 -66.4885 -19.2566 -353.75 -732.621 -408.644 -175.353 -142.576 -95.685 -273.893 553.584
7393 1 -14.9511 -66.3206 -19.9819 763.742 1191.66 912.243 111.522 29.3618 329.857 -747.634 712.694
4899 1 -17.3735 -66.1768 -17.9759 470.959 859.263 985.132 -24.6407 180.836 252.25 -772.193 711.558
4902 2 -16.237 -66.0166 -19.077 -151.736 -572.723 -536.791 -36.5544 -163.695 -179.165 -286.123 586.593
4908 2 -16.9477 -65.298 -16.698 -429.919 -198.228 -425.198 28.2351 30.7886 146.799 -273.648 349.993
7404 2 -12.5619 -65.402 -17.1419 -324.995 14.3103 -184.997 54.5275 52.6595 305.966 -283.43 620.733
5003 2 -14.2656 -64.9284 -20.6205 -260.252 -348.075 -447.823 34.1409 -101.476 -280.896 -285.731 545.454
4997 2 -15.8615 -63.9399 -14.6745 -226.178 -469.969 -543.481 -63.5758 189.237 30.7711 -262.014 452.943
5002 2 -13.3023 -64.0023 -14.8197 -325.246 -359.429 -129.364 24.1707 -306.848 97.6287 -264.474 599.206
7493 2 -10.7677 -64.4932 -15.3581 53.0369 -370.592 -385.227 40.7633 423.393 56.142 -257.163 859.129
4994 1 -12.2272 -64.1769 -16.082 1006.2 720.346 1418.7 -189.264 -10.3602 58.8826 -790.015 698.548
2498 1 -16.9696 -63.912 -15.8218 893.589 783.557 994.909 47.0517 -51.706 42.4387 -796.416 231.488
7408 1 -14.3762 -69.0562 -14.1758 546.367 825.32 1184.22 101.162 79.0753 -220.84 -752.153 708.881
2612 2 -17.2211 -57.4505 -9.70336 -560.167 -145.04 -628.926 -11.2637 51.5596 -22.542 -251.71 464.201
5029 1 -14.4408 -61.0998 2.75135 691.977 1186.22 869.583 -112.508 -223.349 -45.5306 -861.004 617.968
2506 2 -18.476 -63.7043 -15.2589 -210.867 -447.559 -591.369 -50.2875 -151.132 49.6784 -263.126 440.745
2512 1 -19.6069 -63.6444 -14.1139 622.463 635.625 1045.35 112.632 112.223 -108.572 -813.375 533.522
2501 2 -20.9936 -63.2417 -14.708 -483.707 -422.002 -623.359 -142.128 -74.3279 8.12452 -268.524 330.606
2 1 -22.5658 -63.1074 -15.0622 875.73 586.331 840.397 -33.1278 119.234 -38.8824 -796.8 353.911
7 2 -24.3637 -62.3822 -20.0887 -511.196 -822.481 -630.562 -74.1909 -21.3545 27.5775 -258.67 306.843
2503 2 -20.0652 -62.1272 -19.7274 -488.258 9.57504 -211.456 14.3114 -24.0139 332.502 -270.665 721.576
8 2 -22.711 -62.1794 -16.3048 -516.933 -250.556 -521.501 132.431 -108.127 -67.158 -268.651 416.429
9 2 -23.2305 -60.7842 -18.4488 -234.585 -524.913 -466.07 -77.7937 148.53 -5.16348 -267.176 393.812
6 2 -20.7467 -60.7268 -17.5147 -92.3797 -418.747 -479.374 -48.3744 -232.315 65.0537 -277.283 558.216
1 1 -24.4607 -60.9513 -19.4781 775.582 448.077 725.867 23.6752 111.935 66.5774 -808.245 382.122
2497 1 -19.6682 -60.8758 -18.7123 787.797 917.564 1264.81 -10.4764 97.9843 7.51293 -788.123 460.2
3 1 -22.2987 -60.7934 -17.1243 937.162 1043.17 987.742 130.243 50.6598 -6.47949 -788.776 259.131
107 2 -24.3523 -59.9504 -20.6534 -496.071 -686.584 -609.505 43.9964 -49.5995 -12.0234 -263.351 202.911
2603 2 -19.776 -59.4862 -19.5808 -486.513 -136.054 -512.44 -4.25606 -48.5659 -218.04 -262.878 531.352
12 2 -22.642 -59.5638 -16.0663 -562.392 -251.294 -257.842 -116.878 -71.2236 294.655 -262.218 641.445
98 1 -22.3358 -58.6634 -14.758 828.236 654.637 1034.58 159.962 68.0121 -121.945 -810.156 493.747
2596 1 -19.7589 -58.1765 -20.5213 1056.04 757.53 803.989 141.916 -115.371 -116.543 -802.699 467.437
2597 2 -20.8395 -58.8978 -14.2872 -472.466 -413.604 -529.634 -39.4903 164.576 119.156 -258.871 372.326
2602 2 -18.2868 -59.0253 -14.6583 -415.704 -552.001 -597.431 33.7974 -86.9589 39.9004 -258.149 240.252
2505 2 -18.1411 -61.1826 -18.2663 -126.551 -405.243 -622.789 -108.634 -25.8014 -44.6163 -274.85 478.536
10 2 -23.6184 -62.7572 -13.9224 -254.573 -589.032 -542.826 46.0124 -187.766 -48.1396 -263.151 466.493
2500 1 -19.914 -63.4663 -20.6978 618.837 995.067 679.113 -56.4184 54.7223 139.385 -771.477 446.455
5120 2 -12.3269 -57.6141 -1.50715 -417.139 -489.032 -481.367 23.7328 95.6789 -79.6862 -248.878 229.954
2504 2 -16.5569 -62.7267 -16.8261 -440.772 -258.947 -508.811 14.4985 -46.0686 -86.0621 -266.744 281.565
5000 2 -12.0902 -62.7448 -16.8003 -384.666 -10.2335 -671.106 211.261 6.9365 -67.8909 -271.255 690.916
4999 2 -13.6847 -62.4836 -19.9019 -449.009 -146.465 -423.967 97.1933 -7.78668 278.808 -263.661 588.478
2499 1 -16.723 -61.2901 -17.5575 731.08 746.898 1058.92 -24.5794 26.2858 -119.746 -800.911 386.585
2502 2 -15.4274 -61.0963 -18.5377 -180.275 -472.501 -682.589 61.1384 -84.455 10.6214 -265.226 473.156
4995 1 -11.8592 -61.143 -16.932 751.898 864.064 1068.32 -73.207 53.9342 -191.417 -796.179 460.37
4993 1 -14.0008 -61.001 -19.2048 773.17 913.725 1039.09 -143.088 38.0993 4.81497 -799.378 344.873
5001 2 -12.8666 -60.6387 -18.1538 -294.525 -505.797 -358.111 -41.9154 227.23 -70.9594 -263.766 458.827
2508 2 -16.6757 -60.1002 -16.5134 -535.228 -321.974 -547.184 -9.6509 -60.6388 127.059 -262.124 328.501
5004 2 -12.3066 -60.3844 -15.6055 -511.34 -179.939 -491.29 -66.6714 -49.5054 261.524 -263.063 573.983
5099 2 -14.1391 -59.9625 -20.4587 -468.105 -494.436 -457.59 -68.8135 19.5921 -113.485 -265.9 234.681
2594 1 -16.8916 -58.8753 -15.4704 1092.72 837.341 935.475 -82.1377 103.118 -61.9553 -813.641 336.815
5090 1 -12.0955 -58.9959 -14.7515 826.629 897.116 885.413 71.7968 80.0054 -99.1557 -811.413 261.616
2600 2 -16.8777 -57.52 -16.2741 -535.071 -370.628 -416.793 79.6006 -120.379 -83.0451 -261.195 323.656
5093 2 -15.6343 -58.9022 -14.3808 -156.98 -590.585 -284.961 74.3953 253.634 131.32 -250.365 640.49
7589 2 -10.5541 -59.0652 -14.2893 -377.076 -672.645 -635.833 4.31404 -114.032 106.046 -257.947 388.123
5096 2 -12.2687 -57.6754 -15.5903 -651.045 -271.202 -731.059 -3.18989 -1.9307 199.928 -262.194 548.663
19 2 -25.4249 -62.5793 -12.0845 -629.778 -575.085 -513.233 -35.4161 22.2837 40.0005 -256.988 142.312
4906 2 -18.4715 -70.0541 -13.7043 285.189 -412.578 -869.309 -242.196 -136.576 24.2382 -266.748 1117.08
4913 2 -21.1908 -69.4357 -7.29537 -172.97 -552.015 -90.8695 127.43 298.416 -4.43749 -236.08 705.313
2422 2 -23.6522 -68.4979 -7.89331 82.7646 -373.938 -615.258 134.001 -205.327 -81.0411 -267.297 759.654
2414 1 -22.0918 -68.3548 -8.12782 712.411 1287.66 857.499 -33.9317 -110.937 120.985 -786.866 593.958
2328 2 -21.7444 -68.0636 -9.69851 -535.255 -666.65 -3.62925 -25.6359 -131.284 -164.937 -263.329 710.658
4915 2 -19.2886 -67.6452 -13.7757 -508.644 -661.203 -445.022 8.19733 -102.544 94.2695 -287.99 308.927
2419 2 -24.8841 -67.5253 -13.4794 -401.985 -373.784 133.172 42.5902 90.3174 284.383 -269.565 737.992
2421 2 -23.3361 -66.7523 -11.4084 -463.005 -597.64 -366.77 45.5358 100.628 50.6375 -261.096 290.921
2418 2 -20.8353 -66.8056 -11.8496 -515.8 -545.861 -375.692 -9.92039 -194.122 22.7754 -264.044 373.693
2415 1 -21.8742 -66.8294 -10.681 867.247 1195.14 480.31 25.9149 403.057 182.994 -812.02 986.89
2413 1 -24.6891 -66.4963 -12.141 559.835 1151.9 874.84 50.8374 75.6123 53.3237 -814.556 544.704
4909 1 -19.4585 -66.5082 -12.6703 991.349 817.001 791.042 108.893 96.227 -240.41 -796.229 521.861
2424 2 -21.6528 -65.5746 -9.65052 -450.545 -385.021 86.8896 29.0766 -76.0406 375.148 -249.421 836.663
2519 2 -19.5213 -65.0696 -13.4174 -501.279 -384.759 -562.596 -130.059 -17.4843 -69.6882 -260.916 301.188
23 2 -24.6289 -64.9965 -12.8224 -527.671 -31.2592 -548.321 -17.5484 18.1307 -118.964 -249.342 549.062
22 2 -23.4162 -64.844 -7.68339 -183.441 -597.942 -417.724 44.0714 -295.899 -63.8601 -249.724 640.561
14 1 -21.9313 -64.5364 -8.29936 1155.4 1039.91 1197.67 -7.99073 36.2516 72.7052 -833.859 199.996
4918 2 -18.7694 -68.1928 -7.16012 -30.949 -462.145 -647.92 46.5731 -158.409 7.05554 -272.683 618.454
2420 2 -21.2967 -67.2476 -7.15739 -184.711 -866.86 -250.11 33.6949 201.292 69.7094 -245.689 751.354
2428 1 -25.1511 -68.7049 -7.19257 928.629 1070.08 603.702 -57.6351 -194.091 -12.9136 -799.446 543.164
2513 2 -20.8497 -64.4335 -7.11138 -451.55 -746.812 -191.534 -49.0632 168.477 113.626 -245.089 602.219
4917 2 -18.2706 -66.436 -11.5989 -460.998 -625.828 -272.359 55.2807 101.86 160.791 -260.313 460.111
7409 2 -16.1527 -69.2619 -7.60343 228.194 -726.081 -397.903 -87.3667 82.5869 73.1633 -236.513 874.408
9905 2 -10.8043 -69.1287 -7.32164 -27.3613 -897.574 -405.326 99.5483 355.496 14.604 -227.484 990.313
7414 2 -13.4986 -68.3245 -7.73834 -88.4542 -416.073 -830.822 -14.7703 -30.371 -9.55458 -264.612 647.245
7406 1 -11.9558 -68.1507 -7.91663 448.739 1236.04 1100.03 -91.4673 -120.108 80.1435 -814.364 786.706
4910 1 -17.3194 -68.1055 -7.8703 675.983 1329.46 823.522 -31.7963 28.259 64.2636 -794.885 608.447
7411 2 -14.349 -68.1589 -12.8648 -516.755 -144.37 -374.124 -5.58328 66.3833 329.883 -272.043 667.594
4824 2 -17.5384 -67.731 -9.42043 -632.334 -515.058 -213.218 -52.1601 -163.883 -228.427 -249.519 620.911
7320 2 -11.6593 -67.7799 -9.48248 -567.14 -644.977 -168.096 70.0144 -192.016 -124.894 -247.694 607.015
4916 2 -16.0796 -67.1128 -7.51869 127.441 -980.053 -622.979 -79.7948 -120.814 -132.617 -236.821 1036.45
5008 1 -14.5205 -64.1214 -13.7534 979.054 753.976 1042.25 15.2718 -18.8403 -162.02 -812.454 386.515
7405 1 -14.3919 -66.758 -12.0018 920.711 1016.09 777.749 74.7673 63.1918 -90.1549 -809.352 310.329
7413 2 -13.046 -66.4818 -11.1351 -285.475 -592.744 -428.992 129.353 84.7901 256.553 -259.682 583.211
7407 1 -11.6461 -66.4638 -10.3926 854.723 1142.55 766.153 100.401 -52.499 -181.895 -827.661 503.936
4914 2 -15.7682 -66.7766 -11.1689 -233.339 -663.952 -426.92 -72.5026 -176.479 123.246 -253.093 542.509
4911 1 -17.1805 -66.4944 -10.4203 924.832 1280.41 600.749 21.9164 68.5338 -72.4927 -825.592 614.82
5015 2 -14.5376 -65.521 -12.9775 -552.575 -415.248 -587.469 -32.5445 -10.4465 13.5171 -262.243 170.062
4920 2 -17.1438 -65.1995 -9.50023 -511.068 -543.754 -218.058 72.4339 -44.0473 260.003 -249.097 566.45
7416 2 -11.3764 -65.2769 -9.35239 -654.906 -610.896 -536.622 89.8857 204.64 262.309 -236.783 605.814
5014 2 -13.173 -64.6048 -7.83932 -508.096 -519.097 -621.024 234.289 16.3564 -27.172 -242.94 423.466
2510 1 -17.1085 -64.2949 -8.10359 889.145 1079.03 1105.68 -166.609 237.085 -114.958 -848.329 577.388
5009 2 -15.7181 -64.2749 -7.32236 -450.609 -762.258 -549.064 31.8242 68.1468 143.758 -236.989 393.833
5006 1 -11.6702 -64.1788 -8.20703 897.234 1131.24 1040.41 -8.87302 79.439 -322.496 -843.844 610.681
5031 1 -11.5321 -61.4025 3.95426 1169.46 1079.09 1274.13 59.5032 -68.3796 -102.291 -860.661 290.894
7505 2 -10.6621 -64.2125 -6.95745 -509.48 -781.675 -491.751 -87.0909 55.9121 75.0357 -244.438 358.126
106 2 -23.2708 -59.1469 -13.5082 -365.161 -393.707 -353.817 19.045 -236.352 -16.7441 -253.261 413.259
16 1 -24.939 -63.4471 -13.3102 886.041 1072.51 811.166 -23.0225 114.141 -246.027 -814.459 525.931
20 2 -21.9318 -63.0974 -8.99506 -674.38 -182.845 -575.167 82.5322 -132.298 -102.594 -246.098 554.258
2515 2 -19.1585 -62.5956 -12.9925 -534.447 -541.878 -431.402 -35.5859 9.43671 175.198 -251.722 328.007
18 2 -20.914 -62.0131 -11.1801 -561.207 -494.075 -400.36 111.968 -152.998 -55.5971 -254.138 369.715
21 2 -23.4592 -61.8174 -10.529 -464.132 -669.313 -551.131 60.0322 -74.5791 162.938 -250.318 372.776
2517 2 -18.4556 -61.6424 -10.6065 -594.098 -670.098 -714.067 14.8823 -94.5328 175.907 -248.419 362.429
15 1 -21.9624 -61.8234 -9.9938 834.33 943.82 906.917 7.3164 114.789 -132.592 -832.639 318.969
2509 1 -19.4939 -61.5675 -11.7909 896.516 1046.04 798.929 86.7162 -92.1966 -207.541 -820.96 473.022
13 1 -24.9535 -61.5358 -11 954.647 850.893 713.437 65.8686 79.1924 -120.695 -830.616 345.62
2615 2 -19.2889 -60.0982 -12.4845 -424.636 -283.49 -420.593 98.4769 -78.8097 -159.374 -255.769 378.542
24 2 -21.6917 -60.3137 -9.50238 -608.979 -145.952 -571.273 -33.175 -86.7642 -40.0904 -253.724 478.607
119 2 -24.8957 -60.0865 -11.6749 -650.649 -484.665 -507.204 -35.073 50.836 -4.18735 -248.776 189.245
112 1 -24.7747 -59.0222 -12.8586 988.078 525.245 1077.21 -51.0923 99.6913 -68.5175 -821.109 561.378
2608 1 -19.3838 -58.8939 -13.5578 762.335 717.185 1098.81 41.9884 262.642 -151.304 -820.912 641.372
124 1 -24.6313 -58.9635 -7.42994 1076.41 1076.54 869.184 43.2031 190.465 14.6672 -830.928 397.547
110 1 -21.9387 -58.7989 -8.99857 1019.21 960.931 896.593 -10.4971 64.9702 -79.5592 -832.375 208.013
2609 2 -21.012 -58.5923 -7.70529 -247.116 -636.622 -431.365 10.0836 158.826 4.72124 -243.835 435.827
118 2 -23.4787 -58.6788 -8.52687 -357.21 -564.852 -381.116 8.95464 -270.849 22.7387 -249.921 510.483
2614 2 -18.3449 -58.2536 -7.55525 -270.665 -610.408 -337.171 -30.0463 -228.853 191.408 -251.687 605.8
116 2 -21.598 -57.6146 -10.0352 -494.995 -40.5418 -348.354 -50.22 31.6839 -170.056 -256.544 508.65
2611 2 -19.1195 -57.47 -12.8686 -587.356 -534.065 -714.318 112.861 45.8564 -40.8184 -251.607 274.308
131 2 -24.6396 -60.5386 -7.10244 -672.147 -286.673 -376.641 -13.3734 -180.042 -116.175 -250.644 510.173
2686 2 -18.1619 -57.8861 -21.0578 283.414 -480.096 -524.873 51.0548 -236.931 -103.557 -264.645 909.693
2516 2 -17.3571 -62.775 -8.65806 -630.083 -245.048 -637.337 71.4501 -69.9446 -83.8085 -236.435 449.623
5011 2 -14.5082 -62.9625 -12.6452 -539.207 -190.966 -396.858 -26.2385 -55.4684 322.467 -255.557 644.37
5012 2 -11.5834 -62.7778 -9.0704 -514.446 -283.627 -300.131 25.9664 3.76859 -251.063 -245.064 490.819
2514 2 -15.8389 -61.9242 -10.5676 -171.058 -506.082 -395.364 -27.1444 -201.384 134.617 -248.823 515.411
5010 2 -10.5741 -61.9309 -11.319 -535.408 -556.148 -409.88 22.556 -126.683 62.4227 -247.824 283.112
5013 2 -13.1557 -61.6175 -10.8508 -249.915 -540.705 -502.226 -27.5304 99.9065 39.6748 -251.767 334.35
5005 1 -14.5826 -61.7121 -11.5846 1013.45 1044.32 1116.09 -46.203 -10.7599 -248.273 -823.441 447.203
2511 1 -17.1879 -61.5783 -9.69981 891.343 924.941 882.252 -61.2976 -153.012 -76.6664 -843.076 317.27
5007 1 -11.6666 -61.6154 -10.2023 934.002 848.388 954.55 -46.4539 61.002 -243.34 -836.964 452.539
5111 2 -14.8605 -60.2705 -12.3649 -578.644 -84.6015 -574.076 -57.1465 47.4926 36.9319 -253.571 512.346
5016 2 -11.4913 -60.1395 -9.67006 -563.55 -468.05 -591.141 -73.1277 -68.4486 27.9676 -255.025 212.042
2520 2 -17.0683 -60.1045 -9.07155 -468.594 -99.4768 -484.819 -28.6757 -70.2749 217.19 -252.725 548.905
5098 2 -13.1612 -58.8622 -13.5725 -381.239 -578.022 -538.25 -133.536 -127.161 233.106 -256.89 545.435
5104 1 -14.685 -58.8563 -13.0506 933.426 796.627 994.547 -102.698 45.7936 -83.0225 -820.592 299.033
2606 1 -17.0853 -58.5387 -8.53436 753.453 1075.3 1090.97 -100.161 48.4709 -19.4968 -827.831 383.613
5116 1 -14.2366 -58.6384 -7.28398 743.998 1076.36 671.468 19.247 148.44 -79.2497 -834.656 475.277
5102 1 -11.783 -58.6829 -9.10609 876.285 876.734 1017.09 -4.96232 151.257 -75.4747 -823.869 324.905
5110 2 -13.224 -58.5523 -8.4606 -615.175 -605.071 -577.471 -65.0631 -1.90951 139.509 -256.429 268.778
5105 2 -15.7269 -58.2936 -7.74088 -458.216 -605.552 -534.246 36.1278 18.9201 42.0513 -250.543 163.037
5108 2 -11.6303 -57.5534 -10.2412 -549.196 -482.512 -485.74 -2.99551 54.1112 -50.7728 -255.14 144.176
7601 2 -10.7233 -58.4488 -7.84955 -432.363 -629.503 -270.682 42.962 198.453 52.609 -245.322 478.403
5107 2 -15.0304 -57.5226 -12.2231 -499.863 -325.851 -583.395 12.367 5.38906 133.375 -260.102 325.124
7332 2 -12.5915 -69.8991 -2.0668 -503.759 -216.897 -251.779 58.9868 53.6787 -128.643 -127.577 377.134
2518 2 -18.2722 -64.7397 -7.14901 -484.937 -517.252 -338.332 43.2992 -295.051 105.876 -247.521 572.445
4924 1 -20.1998 -68.2749 -6.51311 761.67 1293.09 470.377 12.882 -22.2211 -33.1117 -795.632 726.174
2431 2 -24.8293 -68.3208 -5.73309 -852.022 -210.178 -536.72 146.08 -12.9861 341.085 -250.928 850.026
4927 2 -20.0484 -68.0153 -5.00103 -667.427 -384.826 -352.756 89.7727 41.2745 342.538 -251.655 686.469
2432 2 -23.0784 -67.5759 -1.07286 -590.818 -344.089 88.2651 70.0173 -307.209 -235.118 -271.681 904.522
2433 2 -23.5839 -67.035 -3.60042 -451.148 -633.466 -47.2012 -23.3816 177.956 129.052 -251.317 645.498
2425 1 -24.8315 -67.0758 -4.6604 1358.51 1422.16 604.035 105.652 154.845 -189.949 -825.463 913.764
4929 2 -18.3316 -66.9274 -3.15087 -285.854 -599.14 -349.187 -123.407 169.514 -5.17868 -249.122 462.916
2430 2 -21.0617 -66.787 -2.88263 -72.2139 -609.449 -193.279 170.639 -481.981 -139.454 -248.585 1039.64
4921 1 -19.7751 -66.7733 -3.91235 1303.61 1205.5 798.992 30.4461 116.587 -87.5403 -823.279 530.382
2427 1 -22.6215 -66.7149 -2.34854 1340.57 1166.06 678.894 32.996 204.548 125.485 -825.955 727.202
35 2 -24.7902 -65.6291 -5.4706 -658.366 -133.052 -167.978 -34.6826 -167.017 -169.186 -253.39 657.261
2531 2 -19.634 -65.5251 -4.92331 -597.373 -402.882 -132.801 53.2518 -189.96 -117.236 -260.328 566.827
2436 2 -22.695 -65.067 -2.05878 -817.718 -404.582 -552.277 66.9629 -17.5401 -89.2339 -244.085 411.996
28 1 -24.6826 -64.5901 -6.70397 1124.77 917.927 951.596 146.606 59.1944 -89.9174 -840.442 369.053
2524 1 -19.5592 -64.4524 -6.12341 1304.33 905.999 968.13 -114.307 131.127 -109.449 -835.309 514.296
2543 2 -19.8987 -64.8695 -0.153842 -559.706 -610.097 -489.759 95.5257 -138.772 -177.84 -241.418 437.02
7420 1 -14.9503 -68.2728 -7.06352 470.967 1306.4 988.629 -62.7199 116.213 -119.696 -803.525 792.937
7412 2 -11.1815 -67.0716 -6.94851 80.4244 -1000.94 -500.832 44.2426 235.482 -2.47884 -223.254 1025.14
7418 1 -12.5766 -69.1188 -0.725346 1468.89 952.274 1279.71 -13.1546 51.609 341.333 -925.662 750.321
4928 2 -16.3185 -67.7566 -1.2785 -380.376 -700.647 -159.354 -65.7669 259.513 -136.08 -230.852 701.984
7423 2 -14.5856 -67.9451 -5.58137 -555.558 -516.718 -535.36 240.618 141.501 303.408 -244.559 714.884
7424 2 -12.3348 -67.5588 -1.12722 -681.411 -650.903 -528.728 32.9532 -90.2833 -207.409 -211.129 419.941
4926 2 -15.7902 -66.7508 -3.64857 -332.641 -672.26 -331.419 162.298 -303.318 -20.0408 -230.571 687.016
4923 1 -16.9126 -66.8304 -2.46346 995.911 1192.51 1013.06 -130.069 13.2367 -30.0366 -859.576 299.264
7425 2 -13.2052 -66.726 -3.46229 -450.674 -892.937 -369.332 32.7326 100.549 26.5893 -231.983 523.31
7417 1 -14.4112 -66.7298 -4.51741 1120.62 1515.55 758.593 -122.182 46.7247 -350.432 -854.348 921.818
7419 1 -12.1572 -66.5096 -2.30021 948.318 1240.87 819.008 -163.605 29.7628 -47.5089 -879.638 479.442
7422 2 -10.674 -66.4229 -2.87417 -776.756 -682.465 -621.342 54.7423 28.5063 100.429 -233.88 245.104
5027 2 -14.2815 -65.3728 -5.49948 -594.135 -288.106 -345.249 89.5175 -179.886 -100.56 -241.584 480.505
4932 2 -16.882 -65.3158 -1.77598 -630.936 -483.578 -571.741 144.064 -69.8042 121.453 -228.839 370.983
7428 2 -12.57 -64.9873 -1.81076 -543.616 -485.017 -578.075 -53.1123 -85.0232 -2.50767 -229.215 191.857
5020 1 -14.2475 -64.3334 -6.69032 861.748 860.756 1063.53 -68.9933 104.275 -116.989 -852.416 358.993
40 1 -24.8396 -63.5337 -0.119904 1052.64 967.344 823.889 -3.31707 -10.951 165.599 -826.679 350.361
2536 1 -19.6853 -63.3903 -0.767997 752.846 1063.06 846.887 27.3936 31.9988 -14.2166 -846.711 286.064
26 1 -22.4886 -63.5436 -2.05744 1023.29 582.614 920.737 -126.6 168.532 23.5884 -836.087 542.662
2530 2 -18.327 -63.2381 -1.57127 -539.732 -645.962 -620.983 112.982 34.431 14.9663 -241.823 227.549
2525 2 -20.9865 -63.2026 -1.64818 -477.511 -682.809 -580.147 26.9727 -77.9962 148.897 -246.818 344.317
34 2 -23.6305 -63.0097 -1.05457 -287.964 -705.607 -478.284 61.0183 -193.287 -21.5041 -246.361 505.764
31 2 -24.3384 -63.0717 -6.20998 -660.365 -58.3002 -554.618 -13.2795 -63.5968 127.359 -241.809 609.362
2527 2 -19.4342 -62.9336 -5.62813 -683.537 -187.805 -606.127 -55.6484 -146.688 2.45243 -244.603 535.937
32 2 -22.6883 -62.7276 -3.45209 -681.77 -417.879 -529.884 -47.2204 -88.971 -103.055 -244.521 339.005
2620 1 -19.6743 -58.6898 -6.74267 1267.74 1139.6 689.058 -153.618 50.4104 -202.191 -832.211 691.523
25 1 -24.4142 -61.4927 -5.81945 1169.58 1032.99 901.916 41.285 -28.4996 -22.2953 -829.784 250.564
2521 1 -19.4008 -61.4062 -5.13075 965.55 939.847 1152.35 -67.5084 61.2723 -143.32 -846.806 356.25
27 1 -22.2479 -61.2687 -3.881 952.6 925.459 648.392 65.2249 61.2442 20.8697 -837.832 332.181
30 2 -20.6735 -61.164 -4.20167 -470.045 -594.08 -570.189 79.4783 -198.402 1.49016 -242.247 387.348
33 2 -22.973 -61.0016 -5.25053 -531.073 -683.713 -504.634 51.0052 -36.7291 152.178 -242.548 330.696
2627 2 -19.3691 -60.2491 -6.31139 -596.426 -50.8259 -317.817 9.89282 -14.7708 -163.233 -243.909 551.522
36 2 -22.5043 -60.2505 -2.6884 -719.576 -348.641 -296.59 26.445 39.1266 126.29 -256.101 462.761
2621 2 -20.8168 -59.4371 -0.826097 -167.071 -531.864 -471.231 194.215 131.018 97.2118 -248.005 554.651
122 1 -22.3546 -59.3292 -1.37041 1095.68 1130.99 758.559 -87.9679 137.639 -32.9396 -831.7 458.373
127 2 -24.3061 -58.0918 -6.10038 -647.712 -450.789 -199.322 39.1142 -27.5701 221.642 -253.823 552.973
2623 2 -20.0471 -57.8061 -5.47894 -566.294 -349.475 -369.728 24.1124 -144.871 172.78 -250.722 444.179
2626 2 -18.1382 -59.4641 -1.05035 -270.038 -603.351 -412.592 -99.0317 -252.76 66.5081 -233.657 564.144
2529 2 -17.9847 -61.2922 -4.36081 -439.147 -603.785 -534.053 34.1899 145.358 29.0508 -239.994 299.856
128 2 -22.5707 -57.7217 -1.67779 -641.418 -323.557 -627.3 -22.5307 -16.326 101.064 -239.393 360.156
2522 1 -16.8356 -63.7467 -1.75134 855.912 848.418 1013.37 -177.931 254.412 17.2033 -858.658 562.203
7517 2 -10.6602 -63.5189 -0.799436 -73.3192 -611.52 -371.809 49.3674 241.577 44.6134 -235.782 637.549
5018 1 -12.1092 -63.5088 -1.56252 1037.28 1033.31 1076.85 -88.5615 53.7225 -39.7131 -864.35 196.616
5123 2 -14.2155 -60.1534 -6.74948 -584.247 -325.415 -467.154 -39.448 -6.72417 -68.9169 -243.889 263.534
5021 2 -15.8067 -63.2992 -0.527133 -337.718 -629.975 -404.083 94.9724 133.653 69.3371 -236.451 406.81
5023 2 -13.9071 -62.8284 -6.21332 -613.674 -280.21 -587.226 31.2539 -32.218 95.12 -243.767 369.142
5026 2 -13.2186 -62.7846 -0.596097 -328.656 -656.713 -489.217 -37.1542 -103.859 90.4798 -228.974 376.549
2528 2 -16.4082 -63.0352 -3.07395 -685.076 -261.914 -612.696 33.6905 107.523 -66.7198 -233.434 452.901
5024 2 -12.0261 -62.5458 -2.86531 -577.027 -370.294 -499.759 22.7339 62.5625 -151.946 -232.801 339.545
2523 1 -16.5541 -61.4917 -3.69544 827.611 1167.04 849.183 -191.962 185.716 -98.4808 -846.563 592.848
5017 1 -14.1327 -61.3493 -5.63601 936.468 1059.68 798.48 -38.6969 115.211 -213.22 -841.276 481.587
2526 2 -15.516 -61.3754 -4.86722 -703.51 -684.324 -536.421 10.2401 -33.636 120.876 -242.309 269.486
5019 1 -11.9893 -61.018 -3.42063 827.2 1238.45 748.924 -18.5641 -184.196 -126.179 -848.318 598.357
5025 2 -12.978 -60.9321 -4.61052 -620.608 -677.036 -507.39 75.9024 -63.6714 216.333 -249.048 438.448
2532 2 -16.2893 -60.4903 -2.48309 -617.257 -517.228 -396.207 125.567 30.5035 103.358 -248.781 344.817
5028 2 -12.3673 -60.1143 -2.10468 -502.193 -595.931 -110.558 -32.2658 -81.8672 300.79 -242.143 702.516
5114 1 -12.1737 -59.0986 -0.846952 662.242 1365.64 789.097 -140.794 219.482 -119.091 -843.634 817.417
2618 1 -16.5987 -59.3293 -1.43034 784.668 1162.6 571.893 -65.4946 -86.1899 -154.773 -849.125 612.814
5119 2 -13.9139 -57.6599 -6.04722 -680.51 -659.39 -308.582 -28.5439 -56.4072 110.348 -246.219 423.604
2624 2 -16.4915 -57.8976 -2.18959 -542.795 -508.129 -527.866 -50.9388 37.5552 -8.93501 -246.674 114.726
7613 2 -10.6775 -59.4104 -0.269432 -98.5545 -503.791 -438.332 -59.2243 247.201 16.799 -242.571 580.232
5117 2 -15.74 -59.3002 -0.155321 -515.018 -714.858 -484.604 114.87 -32.641 146.586 -249.559 392.661
5022 2 -10.5077 -60.7826 -3.97546 -345.126 -668.998 -393.544 -146.62 -173.112 205.328 -238.995 610.271
4930 2 -19.0397 -69.3396 1.87157 111.321 -572.732 -610.707 -167.293 354.583 22.6367 -219.541 978.791
2434 2 -24.7207 -69.16 0.483017 -182.212 -816.329 -551.006 12.6426 -305.377 -223.228 -251.679 856.734
2459 2 -25.2149 -68.4992 5.37416 -537.893 -763.705 -464.582 65.3904 18.4388 124.589 -228.421 365.151
4925 2 -21.938 -68.7615 0.992158 105.638 -384.72 -670.304 -272.801 232.354 89.5211 -261.05 933.444
4937 2 -19.9988 -68.5729 5.70073 -713.974 -554.446 -536.63 -124.408 92.6098 -39.6439 -240.602 324.785
4943 2 -21.0114 -68.7221 3.28322 -868.737 -645.903 -804.556 25.8886 105.172 -162.825 -234.194 392.686
4936 1 -20.5477 -68.5881 1.80956 1396.86 951.443 814.079 23.0032 -115.624 -289.028 -837.178 755.481
4948 1 -18.7338 -68.6371 6.6285 1018.34 1286.38 737.266 138.701 55.2859 -159.823 -842.778 608.029
2446 2 -22.5955 -68.431 5.31153 -488.816 -570.537 -518.03 -138.969 -30.7669 60.3767 -221.562 277.232
2426 1 -23.3596 -68.3429 0.332066 1093.26 925.87 1110.26 -5.68476 297.885 -51.1923 -767.41 552.558
2438 1 -21.1548 -68.1308 4.72746 991.051 1173.2 447.408 251.052 -76.8365 16.2804 -863.617 797.08
2452 1 -23.9306 -67.6608 5.91323 935.683 1494.34 540.765 -79.3963 53.3407 -221.064 -884.536 928.834
2443 2 -24.3822 -67.3164 1.48945 -204.924 -437.533 -569.043 -208.313 -570.429 55.1221 -284.946 1103.38
4939 2 -20.0207 -67.1078 1.26154 -638.628 -323.939 -501.112 250.797 -175.343 -108.064 -242.783 625.005
2444 2 -21.0962 -66.544 4.3768 -713.674 -507.894 -317.809 -73.115 79.8562 -176.859 -233.451 496.588
2441 2 -24.1125 -66.2474 5.36241 -422.819 -739.096 -153.282 -51.4593 -78.8764 173.639 -166.985 612.363
2437 1 -24.2499 -65.6474 1.86456 793.242 758.978 1037.81 -47.9682 150.736 43.4097 -810.221 387.411
2445 2 -22.7915 -65.6431 2.51094 -568.838 -540.499 -662.753 -132.046 123.953 3.87935 -250.969 332.763
4933 1 -19.5881 -65.5704 1.23653 1102.88 1058.11 952.183 -105.137 90.359 381.403 -844.572 715.561
2439 1 -21.5896 -65.2833 3.47145 1183.28 807.704 825.352 47.1672 -44.6078 -392.467 -856.739 780.691
2442 2 -20.4301 -64.8792 2.45844 -761.485 -563.612 -405.636 -57.7337 -138.245 76.3825 -235.144 424.507