ITEM: TIMESTEP
160000
ITEM: NUMBER OF ATOMS
29952
ITEM: BOX BOUNDS pp pp pp
-2.5615833775063237e+01 3.5601128117061187e+01
-6.6787069145488928e+01 7.6772363479687655e+01
-2.1035324467156940e+01 3.4903177627851115e+01
ITEM: ATOMS id type x y z v_StrAtomXX v_StrAtomYY v_StrAtomZZ v_StrAtomXY v_StrAtomXZ v_StrAtomYZ c_PEAtom v_VMS
1 1 -24.5109 -62.6414 -19.6514 823.072 1260.39 819.461 -74.3769 89.0834 6.02679 -828.354 483.064
2 1 -22.0113 -65.3822 -16.1332 894.74 1142.7 963.369 20.9859 -94.3043 34.2801 -836.293 284.087
3 1 -22.0379 -62.5946 -17.7323 824.906 1049.14 898.255 28.7415 -33.0176 70.7139 -840.602 244.874
6 2 -20.5764 -62.4729 -18.3594 -258.387 -570.29 -455.891 -47.7625 -218.465 35.1503 -238.333 477.934
7 2 -24.579 -64.0715 -20.5194 -501.433 156.414 -467.373 111.351 2.26041 218.957 -246.172 769.776
8 2 -22.1666 -63.9901 -16.9571 -568.075 -144.476 -527.929 33.9203 -81.4042 -62.1305 -251.318 446.043
9 2 -23.1362 -62.5817 -18.8715 -737.267 -657.979 -449.717 -17.7931 65.7966 33.8605 -245.448 289.049
10 2 -23.0873 -65.445 -14.9048 -438.085 -600.156 -458.706 4.34572 -32.9915 -33.8249 -252.036 173.506
12 2 -22.1703 -61.2464 -16.7924 -583.114 -124.27 -443.386 85.6464 72.3389 134.903 -249.037 508.182
98 1 -21.8847 -59.8891 -15.9968 1071.72 1115.61 877.67 -115.031 -44.302 -82.2118 -836.89 337.578
103 2 -24.5408 -58.4698 -20.5301 -623.771 -110.351 -537.712 -132.464 -70.2366 62.1804 -246.543 553.047
104 2 -22.154 -58.5153 -16.9048 -549.604 2.51992 -446.388 -96.8923 156.788 -206.041 -245.494 698.41
106 2 -22.8983 -59.7695 -14.7484 -467.08 -613.158 -350.355 28.6496 -111.819 4.886 -245.91 303.412
107 2 -24.6737 -61.2327 -20.4781 -554.81 -59.2401 -547.709 111.923 -155.779 -27.1684 -255.924 595.581
2497 1 -19.0491 -62.7099 -19.0216 927.234 969.894 1034.94 -67.8887 -149.542 -19.5639 -836.791 301.479
2501 2 -20.563 -65.336 -15.4765 -306.786 -632.849 -429.836 -30.2123 173.454 -75.4659 -244.177 437.515
2503 2 -18.9595 -64.0444 -19.8663 -476.726 -218.998 -580.762 -21.9036 -32.8148 60.462 -253.241 345.972
2597 2 -20.3664 -59.8623 -15.4414 -298.654 -603.848 -397.935 92.4867 230.112 16.906 -243.389 508.009
2599 2 -18.6818 -58.6031 -19.8226 -564.158 -167.809 -535.837 -80.1264 -71.9817 94.2874 -255.875 456.229
2603 2 -18.7407 -61.3393 -19.8149 -517.293 -47.399 -542.811 -7.03391 67.5995 -128.453 -252.61 544.794
2596 1 -18.8831 -59.9502 -20.6562 1128.63 987.2 971.435 -29.5446 89.6999 -86.3063 -827.763 267.553
2608 1 -19.4253 -59.8954 -14.0965 853.542 800.992 1117.2 -103.685 23.336 -22.747 -838.823 348.668
2512 1 -19.4428 -65.5081 -14.294 919.955 1063.47 1134.72 -90.0738 68.7818 24.7666 -840.538 276.171
2500 1 -19.029 -65.4583 -20.6679 923.362 1074.88 808.634 7.42885 154.268 -76.792 -847.114 377.828
27462 2 -25.5386 -62.7794 -18.4564 -826.463 -647.246 -427.585 -12.5495 48.8722 24.3722 -249.201 359.383
101 2 -25.376 -59.8498 -14.2481 -421.449 -561.976 -343.348 84.2297 240.163 131.566 -244.904 532.044
5 2 -25.6374 -65.4062 -14.3369 -450.731 -560.934 -536.53 -10.3777 -4.32484 -40.837 -251.094 124.23
2506 2 -17.915 -65.504 -14.7718 -190.588 -634.265 -614.705 -13.1141 -58.4396 16.2832 -241.576 447.337
2505 2 -18.0541 -62.8428 -17.7785 -500.889 -643.274 -397.092 7.26328 146.2 -27.1327 -242.697 335.136
2602 2 -17.8902 -59.9622 -14.5229 -241.861 -501.264 -405.81 -47.4597 -244.26 32.9381 -246.673 490.552
2498 1 -16.4031 -65.4415 -15.376 892.396 1005.29 1162.14 32.9843 -96.4009 10.9658 -837.822 294.212
2499 1 -16.5862 -62.7873 -17.1105 1019.34 1069.24 738.086 14.3153 -1.90581 135.273 -841.124 388.781
2502 2 -15.5542 -62.819 -18.3264 -512.007 -647.914 -269.15 -7.99242 -88.2194 62.5097 -248.186 381.731
2504 2 -16.3001 -64.0703 -16.2301 -544.379 -283.643 -557.38 -68.7511 69.4847 -59.1257 -251 332.708
2508 2 -16.4361 -61.3497 -16.3155 -504.856 167.995 -365.934 -8.91625 -6.19549 280.114 -243.88 783.772
2594 1 -16.4818 -59.9125 -15.4203 940.269 1094.67 1160.57 68.2157 -155.219 78.3943 -829.896 378.199
2600 2 -16.3917 -58.5908 -16.3114 -546.178 -100.839 -509.721 60.5567 -98.4425 -89.175 -253.843 497.344
4993 1 -14.5653 -62.7162 -19.6074 1021.77 1226.57 1036.19 -108.113 -55.6026 83.9472 -827.676 323.54
4994 1 -11.8196 -65.3887 -16.2133 985.496 1400.71 1118.08 99.9061 81.0636 47.3658 -830.946 437.4
4995 1 -11.9178 -62.5421 -17.84 1018.18 1094.68 1176.91 -83.4019 -145.499 62.3597 -831.3 339.039
4999 2 -14.52 -64.1274 -20.524 -495.255 143.726 -338.471 -57.8105 -13.5807 290.943 -248.561 772.799
5000 2 -12.1137 -63.9582 -17.0129 -514.745 224.484 -439.381 -30.8096 24.0422 -251.246 -248.489 830.893
5001 2 -13.0724 -62.5289 -18.978 -277.001 -607.556 -437.952 100.21 256.154 31.9817 -243.222 558.577
5002 2 -12.8266 -65.6011 -14.9749 -465.478 -648.331 -276.409 -21.2979 -138.308 -53.7114 -246.006 413.711
5004 2 -12.0847 -61.1987 -16.9223 -445.03 78.2405 -388.243 28.0763 -14.9663 220.58 -255.501 629.544
5090 1 -11.7476 -59.8113 -16.0766 1127.13 1201.9 946.976 22.952 42.5312 37.0162 -824.77 250.269
5095 2 -14.5632 -58.5913 -20.3687 -553.772 -140.367 -662.133 -16.5049 63.0227 0.965273 -252.928 490.08
5096 2 -12.1527 -58.438 -16.8673 -509.195 -128.138 -469.093 -108.376 50.7175 -100.58 -254.979 452.585
5098 2 -12.6133 -59.9009 -14.7224 -297.332 -739.039 -435.739 35.2597 -162.466 -46.4807 -241.129 492.466
5099 2 -14.8091 -61.3257 -20.4201 -451.276 36.229 -546.796 175.632 -104.529 -104.521 -254.043 671.896
5093 2 -15.2365 -59.9554 -14.4321 -442.424 -595.415 -490.082 -76.623 93.2984 -23.682 -251.776 252.579
4997 2 -15.3226 -65.4538 -14.1809 -326.484 -584.7 -389.619 -9.76148 196.143 0.0896618 -246.451 412.384
7589 2 -10.1602 -59.8578 -15.6132 -282.508 -662.364 -567.126 -106.047 170.773 -89.4483 -245.363 512.265
4998 2 -10.4432 -62.7102 -18.5546 -204.21 -518.096 -424.351 -57.4058 -189.041 29.3261 -248.299 444.481
4908 2 -16.2333 -66.7796 -16.2915 -594.609 -44.1144 -517.631 11.6659 29.1357 142.605 -249.215 574.941
27558 2 -25.4922 -57.2383 -18.4092 -369.048 -614.241 -294.545 52.3286 -130.516 -12.8623 -247.226 379.147
2692 1 -19.0974 -54.4122 -20.6355 1063.27 1135.57 1028.55 0.548682 9.08497 -14.1098 -836.133 98.943
97 1 -24.4736 -57.1177 -19.6492 854.73 811.899 828.147 46.4811 -165.352 54.0606 -843.171 314.127
99 1 -21.9945 -57.1767 -17.8046 749.546 1051.8 1203.51 -40.5797 -20.0601 -6.71288 -835.168 408.056
102 2 -20.5488 -57.3432 -18.48 -485.404 -567.755 -544.578 -57.1989 -119.99 95.65 -248.597 293.027
105 2 -23.0241 -57.0816 -19.0425 -719.585 -578.407 -436.639 10.2583 66.248 4.88499 -242.916 271.289
108 2 -22.0586 -55.7968 -16.9101 -540.47 -28.2536 -479.944 -56.7467 -36.1627 153.703 -249.339 565.229
193 1 -24.5392 -51.6485 -19.7012 1049.81 1044.03 1078.25 126.102 -108.474 -13.3107 -836.214 290.763
194 1 -22.0332 -54.3447 -16.1779 1012.01 943.454 824.669 -28.7012 -149.879 52.7312 -834.846 324.278
195 1 -22.066 -51.6878 -17.7839 977.755 775.426 1105.91 45.3353 -29.2751 50.3452 -834.558 315.647
198 2 -20.5491 -51.6371 -18.355 -321.953 -600.566 -542.238 49.998 -171.793 -41.6654 -244.043 407.458
199 2 -24.8274 -53.0114 -20.596 -517.585 74.2303 -525.527 48.0069 33.9436 182.084 -248.149 681.794
200 2 -22.3527 -53.0359 -17.0068 -585.72 -268.168 -627.199 27.258 -27.1264 48.0778 -258.135 356.514
201 2 -23.0573 -51.6687 -19.0976 -455.671 -561.34 -361.888 -33.5555 251.234 40.2632 -241.171 476.936
202 2 -23.0279 -54.4303 -14.8836 -505.039 -611.531 -179.683 48.4119 -136.017 -81.4396 -242.474 484.019
204 2 -22.3096 -50.3272 -16.9666 -537.009 9.2712 -508.288 15.6782 9.76224 127.751 -253.175 577.53
299 2 -24.7501 -50.2513 -20.4919 -577.595 -110.488 -550.647 -53.9014 12.9203 -90.8774 -251.857 490.225
2593 1 -19.0696 -57.2625 -19.0276 977.243 1047.32 1054.38 59.4516 110.138 -165.657 -833.017 367.119
2689 1 -19.0332 -51.5917 -18.8731 770.202 1311.71 1124.83 0.508404 12.9584 76.331 -830.548 494.916
2693 2 -20.5483 -54.2633 -15.6095 -460.055 -679.271 -390.212 -128.883 160.315 -91.723 -244.397 469.488
2695 2 -18.9179 -53.0421 -19.7384 -558.336 283.232 -412.788 143.632 87.3162 263.248 -246.877 948.47
2699 2 -18.8989 -55.8308 -19.8478 -524.628 129.395 -450.972 -19.3088 -19.0169 -145.961 -250.131 671.651
2795 2 -18.9023 -50.16 -19.6819 -516.421 114.066 -417.955 -52.52 56.5553 -222.701 -252.218 715.392
2704 1 -19.473 -54.4098 -14.3998 946.805 1183.23 1114.06 96.1928 -72.7435 -3.37329 -823.763 296.639
203 2 -24.7195 -55.7863 -20.4423 -632.735 -223.407 -521.89 -16.7146 50.8116 -41.0644 -249.301 384.846
197 2 -25.4757 -54.5876 -14.3059 -358.323 -576.505 -447.525 -86.4523 186.93 1.39961 -243.32 404.171
2788 1 -19.0052 -48.796 -20.5864 1113.32 956.955 1100.91 -93.8708 -36.9645 -97.6841 -834.676 286.051
2789 2 -20.5208 -49.0576 -15.5195 -451.148 -569.839 -576.988 3.96906 107.808 -19.6055 -249.382 225.954
2697 2 -17.9804 -51.6015 -17.6662 -358.991 -620.022 -410.647 -47.1824 74.2573 1.62781 -249.022 283.815
2698 2 -17.9431 -54.4491 -15.0051 -106.231 -633.399 -484.28 -0.845558 -111.541 -44.0176 -251.102 514.462
2800 1 -19.4573 -48.9443 -14.3724 834.809 1011.58 1097.96 -32.7739 -174.63 73.0025 -843.266 405.804
290 1 -22.0138 -48.9408 -16.1215 968.477 1055.4 1004.33 -10.4396 -12.4618 87.6412 -830.389 171.933
298 2 -23.0224 -48.8501 -14.8458 -298.544 -654.958 -401.814 -49.6341 -176.549 115.697 -246.734 491.88
2601 2 -17.9202 -57.1701 -17.8252 -233.061 -685.39 -376.248 34.081 236.481 30.4276 -237.787 578.246
2595 1 -16.4525 -57.1933 -17.1608 1024.06 1027.2 826.278 12.8497 15.7351 -83.6123 -838.116 248.917
2598 2 -15.3806 -57.2783 -18.3583 -469.152 -697.479 -397.684 -19.5459 -76.8026 -15.9266 -244.072 305.225
2604 2 -16.2613 -55.8325 -16.3561 -654.532 -212.551 -518.466 -23.2383 -41.3325 7.58347 -254.544 400.8
2690 1 -16.4316 -54.4784 -15.5213 1030.74 1084.68 942.176 42.118 38.7341 -72.8595 -830.949 203.172
2691 1 -16.441 -51.6881 -17.1986 999.925 1017.4 946.646 15.5136 -121.387 28.3245 -836.962 226.732
2694 2 -15.4457 -51.6253 -18.4917 -274.499 -635.744 -369.548 39.665 -147.938 -16.538 -248.295 419.993
2696 2 -16.234 -53.0365 -16.3786 -622.506 1.91716 -432.629 75.5668 -43.8822 -173.162 -246.321 648.272
2700 2 -16.1844 -50.2835 -16.4008 -546.925 181.552 -481.478 -43.2506 -6.2216 177.338 -246.7 766.395
5089 1 -14.3351 -57.2198 -19.5689 830.827 1202.51 806.092 100.63 -86.5863 -192.046 -835.94 558.094
5091 1 -11.8444 -57.1774 -17.8097 832.77 967.13 897.159 28.1522 -111.299 -21.6699 -836.403 233.444
5097 2 -12.8725 -57.1932 -18.9927 -586.005 -706.064 -641.813 -31.1315 -21.8066 64.0534 -248.543 165.744
5100 2 -11.9895 -55.705 -17.0921 -593.595 42.6106 -561.341 20.911 9.38434 118.005 -245.106 654.698
5185 1 -14.3321 -51.6133 -19.6602 830.427 1130.03 888.426 -79.3461 -174.056 126.216 -832.068 483.026
5186 1 -11.8127 -54.3553 -16.2127 1100.95 1053.01 959.142 -32.9852 -66.3698 31.9077 -844.582 187.463
5187 1 -11.8912 -51.5805 -17.8121 718.979 1105.52 1153.78 16.4697 -186.383 -31.0044 -834.262 527.554
5191 2 -14.5041 -52.996 -20.6121 -637.542 -73.0205 -465.251 70.1154 -2.18201 122.564 -244.765 557.616
5192 2 -12.0772 -52.9005 -16.8478 -544.829 43.7693 -592.842 -12.4335 42.8785 -71.9062 -248.466 631.272
5193 2 -12.9197 -51.7317 -19.0244 -717.346 -612.031 -506.579 5.61588 52.2503 14.6939 -248.334 205.547
5194 2 -12.7818 -54.4665 -14.9237 -507.845 -671.25 -214 17.7006 -182.264 54.2032 -236.282 520.074
5196 2 -12.0402 -50.1238 -17.0951 -489.611 -95.9475 -524.485 13.3582 41.341 114.001 -250.298 463.214
5291 2 -14.5012 -50.221 -20.4584 -578.423 -170.108 -486.06 11.2453 23.741 -89.535 -252.713 404.548
5195 2 -14.5126 -55.7525 -20.3539 -631.075 197.033 -418.612 -65.6698 9.16279 -169.471 -240.818 808.895
5189 2 -15.2266 -54.4054 -14.437 -402.11 -610.166 -442.567 43.9553 215.494 27.5021 -247.041 428.818
5190 2 -10.4132 -51.665 -18.4339 -188.399 -565.668 -512.315 23.6257 -105.07 24.3215 -246.604 402.017
5290 2 -13.0242 -48.8984 -14.9961 -864.062 -718.426 -655.401 -27.684 172.045 98.1353 -237.624 392.874
5282 1 -11.9657 -48.8332 -16.1207 619.564 1041.86 744.393 -56.8955 38.0055 -22.8825 -849.969 395.997
7781 2 -10.5823 -48.8388 -15.3996 -518.892 -669.13 -543.709 45.6373 114.241 67.5379 -238.787 280.258
2615 2 -19.7313 -61.2873 -13.3769 -564.623 135.187 -470.163 -43.9357 55.1876 -176.456 -245.134 735.453
112 1 -23.958 -59.9046 -13.5404 905.35 1107.75 960.53 -5.67956 -49.0616 -123.558 -837.341 293.191
16 1 -24.1306 -65.4299 -13.7451 945.359 1007.29 867.071 -11.4963 87.2922 97.7629 -837.388 258.345
13 1 -24.1402 -62.7052 -11.8799 643.997 1259.68 1070.74 -118.317 49.4053 29.9557 -842.471 591.989
14 1 -21.5683 -65.4929 -8.20845 735.862 1251.61 1129.64 0.276024 -128.561 47.9784 -835.623 523.885
15 1 -21.559 -62.7684 -10.0267 1069.26 1175.51 1082.32 -71.6062 44.2046 33.0166 -834.891 185.974
18 2 -20.5793 -62.829 -11.308 -413.136 -604.111 -126.062 4.3829 -213.247 12.6091 -247.832 557.372
19 2 -23.9305 -64.1265 -12.7609 -489.319 -62.0144 -283.856 3.5335 -24.376 309.401 -240.98 652.699
20 2 -21.3049 -64.1401 -9.09579 -459.404 30.4632 -333.831 -27.3961 39.9396 -343.427 -247.02 745.042
21 2 -23.0598 -62.7697 -10.6712 -282.605 -576.883 -359.136 9.19725 259.035 -72.1357 -242.597 535.814
22 2 -23.1083 -65.51 -7.74036 -260.831 -609.554 -557.498 72.3475 -71.4652 -52.8723 -251.698 381.543
24 2 -21.4146 -61.4201 -9.11322 -583.248 -167.668 -474.605 11.2163 -58.6603 109.583 -248.717 431.377
110 1 -21.539 -60.0022 -8.38574 828.526 1128.07 988.84 17.0547 -58.3316 -208.415 -839.167 456.941
115 2 -23.8225 -58.5809 -12.6023 -473.972 137.565 -562.411 -96.7511 -63.3105 140.767 -251.731 731.735
116 2 -21.3095 -58.6621 -9.39517 -555.584 112.783 -237.161 -39.9668 43.878 -301.411 -244.616 786.382
118 2 -23.0696 -59.8989 -7.89835 -251.244 -591.698 -519.396 83.5642 -139.118 -23.2349 -247.921 420.892
119 2 -23.8725 -61.3636 -12.7798 -567.12 22.7384 -413.301 68.2241 10.7133 -156.184 -247.535 606.918
2509 1 -19.5149 -62.7881 -12.5583 1098.25 1338.27 972.108 2.11039 -61.0654 -161.56 -830.516 439.665
2515 2 -19.6309 -64.1919 -13.3427 -632.886 9.56852 -527.138 -9.4342 -10.2283 118.023 -248.921 631.159
2611 2 -19.7552 -58.5867 -13.2477 -454.228 -108.952 -569.873 61.1456 -0.360543 69.8024 -255.291 445.368
28 1 -24.6085 -65.537 -7.23023 845.924 1345.26 1213.78 27.4202 -7.11534 14.2363 -829.744 451.648
124 1 -24.5936 -59.9189 -7.36838 804.612 1085.65 1100.16 51.8597 -165.928 -162.384 -830.571 503.031
2609 2 -20.4434 -60.0083 -7.25703 -340.96 -632.071 -594.558 -19.9862 78.583 -45.0672 -246.553 317.884
2513 2 -20.5322 -65.5431 -7.01352 -341.08 -638.468 -535.054 33.7947 72.5719 23.2945 -252.869 298.72
17 2 -25.6983 -65.3558 -8.4356 -216.294 -621.868 -305.243 -23.6377 298.274 -27.8013 -243.509 638.141
27474 2 -25.582 -62.5804 -11.3643 -435.795 -635.357 -541.388 41.2451 -35.8839 5.43128 -243.341 197.376
2614 2 -17.9567 -59.9775 -8.02431 -463.562 -594.884 -106.946 -22.1701 -205.294 59.7293 -242.921 574.34
2518 2 -17.9724 -65.526 -7.85801 -120.856 -673.136 -313.849 -31.2302 -220.261 -25.3895 -247.694 621.352
2424 2 -21.3278 -66.8781 -9.13831 -571.839 -72.0614 -366.911 -72.6428 -68.3586 290.445 -240.431 687.227
2517 2 -18.0285 -62.7388 -11.9163 -232.681 -662.262 -400.923 -97.9666 221.197 -80.3665 -242.476 579.245
5104 1 -13.8421 -59.98 -13.6596 1028.72 1091.44 898.02 50.218 -0.135264 91.2481 -840.361 248.509
5008 1 -13.7824 -65.5335 -13.6734 1076.81 1162.14 931.289 49.7541 -70.3282 23.6843 -834.173 254.599
2510 1 -16.9031 -65.4984 -9.07352 1217.06 1031.8 890.916 97.8153 -21.2453 216.665 -835.39 501.157
2511 1 -16.8458 -62.8313 -10.7946 1069.36 993.887 1084.85 62.9602 -29.405 -25.9185 -835.815 153.644
2514 2 -15.3671 -62.7496 -11.5228 -93.5416 -534.292 -351.75 31.3419 -285.823 -30.7369 -246.485 630.867
2516 2 -17.0599 -64.193 -9.93451 -585.194 -224.861 -473.758 85.4352 -93.1957 -105.069 -255.184 427.991
2520 2 -16.9945 -61.451 -9.98215 -604.635 -15.6759 -641.666 -56.6331 -35.5874 -6.73096 -249.468 619.364
2606 1 -16.9202 -60.0161 -9.24273 1071.08 1173.84 922.394 -76.7978 18.7231 -89.606 -838.063 301.294
2612 2 -17.1402 -58.5878 -10.0855 -588.037 287.183 -429.395 -45.0602 78.3519 -186.798 -248.456 884.036
5005 1 -13.8443 -62.7549 -12.12 1113.34 949.911 1035.97 -28.4779 -44.6659 40.4017 -837.9 182.665
5006 1 -11.3144 -65.3462 -8.39422 787.234 1173.41 990.604 26.1277 62.2594 161.189 -836.452 451.193
5007 1 -11.2973 -62.6659 -10.1834 1023.35 1139.37 1058.57 87.8511 73.6184 -117.71 -837.778 302.647
5009 2 -15.3366 -65.4349 -8.51243 -227.202 -614.699 -415.198 5.00863 104.914 -52.5099 -241.217 392.449
5011 2 -13.4889 -64.1464 -12.8708 -527.984 -4.08827 -542.269 -124.018 -47.6543 67.9986 -252.043 590.745
5012 2 -11.0541 -64.0105 -9.24093 -542.498 -37.6279 -402.939 -41.9639 -71.8979 -173.893 -252.485 561.621
5013 2 -12.7584 -62.7624 -10.8719 -258.742 -662.227 -364.967 -43.671 309.125 -9.37226 -237.583 651.064
5014 2 -12.817 -65.3994 -7.91904 -545.914 -672.543 -607.547 57.5889 -40.7885 -33.7343 -244.728 174.309
5016 2 -11.1251 -61.2663 -9.34697 -537.841 -93.2681 -552.87 30.5317 58.5712 146.239 -247.397 530.846
5102 1 -11.3655 -59.9208 -8.50583 880.058 1039.26 1080.37 47.4304 -73.5038 -87.4228 -838.692 281.896
5105 2 -15.4583 -59.9452 -8.51851 -393.564 -616.55 -388.624 40.5671 220.527 69.89 -239.355 465.119
5107 2 -13.7012 -58.5794 -12.7979 -503.722 206.999 -427.76 -4.16264 53.8431 261.79 -238.989 819.303
5108 2 -11.1708 -58.5399 -9.41601 -581.244 -64.738 -453.633 108.418 -92.5371 -164.95 -245.83 599.774
5110 2 -12.8775 -59.9495 -7.94674 -323.269 -587.314 -563.456 -47.4488 -70.8909 7.17211 -244.969 293.214
5111 2 -13.6381 -61.3663 -12.8686 -603.361 -155.962 -599.214 -66.6716 64.7447 21.6217 -251.119 475.016
5020 1 -14.2782 -65.4824 -7.31181 607.723 1008.04 1109.73 -60.9046 41.3008 119.255 -839.613 519.819
5116 1 -14.3584 -59.8698 -7.34167 816.333 932.563 1054.24 34.8478 -11.8332 25.0107 -843.047 219.989
5015 2 -13.6233 -66.9728 -12.8759 -564.563 243.245 -476.662 18.0341 23.1585 -226.791 -246.535 863.806
7505 2 -10.203 -65.3865 -7.24582 -305.789 -644.255 -519.709 -97.3218 164.007 -65.1745 -244.535 458.005
7416 2 -11.0834 -66.8213 -9.22545 -548.988 234.265 -404.758 -56.7098 -42.0252 197.237 -246.202 808.068
2807 2 -19.5572 -50.2723 -13.4468 -578.975 -204.79 -538.591 34.4641 -2.73486 -114.275 -245.813 411.456
114 2 -20.4173 -57.0212 -11.2808 -290.821 -659.051 -352.662 55.7661 -163.603 -122.672 -244.192 501.416
117 2 -23.0654 -57.118 -10.651 -404.553 -709.808 -558.644 -36.3033 -7.0069 -26.5402 -245.231 275.866
208 1 -24.0228 -54.4692 -13.5911 987.815 812.589 1025.42 77.7838 -16.6017 -67.6805 -837.364 267.259
109 1 -24.1192 -57.1395 -11.8481 874.354 1170.56 1057.41 -45.4932 -137.629 77.7356 -830.838 384.952
111 1 -21.5606 -57.221 -10.1594 1069.68 1254.34 834.521 -0.568269 -76.2706 39.42 -838.614 393.625
120 2 -21.3445 -55.8644 -9.22415 -647.977 22.6894 -593.79 13.5461 26.5747 29.5909 -238.813 649.372
205 1 -24.1454 -51.6709 -11.9807 780.155 1226.98 1229.43 22.8424 -48.3705 -38.0709 -823.157 462.264
206 1 -21.507 -54.3824 -8.61637 1011.76 970.431 999.649 13.5242 -24.0479 -8.16635 -846.004 61.9502
207 1 -21.6005 -51.6219 -10.2282 959.704 1123.53 784.053 61.9254 -73.8663 -109.171 -830.127 387.424
210 2 -20.6219 -51.6474 -11.5024 -238.86 -731.88 -385.197 -77.6252 -147.617 95.4026 -244.255 550.537
211 2 -23.9134 -53.0659 -12.8655 -480.385 -73.2652 -537.793 -72.2081 -20.107 152.216 -252.92 527.994
212 2 -21.2937 -53.0851 -9.51232 -587.798 12.9874 -620.522 -70.6357 26.5475 14.5962 -247.872 631.977
213 2 -23.1184 -51.7016 -10.7155 -416.025 -592.42 -284.453 34.1947 213.266 37.2636 -251.684 464.496
214 2 -23.007 -54.2879 -7.97267 -199.787 -611.844 -399.631 24.9338 -241.819 -3.14568 -239.488 552.001
215 2 -23.8413 -55.7471 -12.6383 -530.245 -43.001 -587.886 63.3195 -70.6875 -70.9765 -253.841 557.625
216 2 -21.3017 -50.2549 -9.45156 -537.363 -279.634 -633.92 7.95624 53.6643 -15.8785 -256.01 331.993
311 2 -23.9444 -50.2799 -12.8589 -486.814 155.914 -353.001 -103.444 98.1725 -277.812 -250.596 798.469
2605 1 -19.47 -57.0955 -12.6193 871.694 1076.21 1103.37 54.7665 -10.5625 -35.9494 -823.949 247.648
2701 1 -19.4652 -51.6726 -12.6648 1147.9 994.206 945.503 -4.00332 -71.8156 9.19443 -837.52 221.933
2705 2 -20.3994 -54.3383 -7.42922 -304.909 -660.752 -430.939 -98.9567 138.062 -88.9038 -239.311 455.997
2707 2 -19.5697 -53.0015 -13.5546 -562.991 24.0976 -525.265 -34.1557 -11.9731 122.686 -254.315 610.764
2711 2 -19.747 -55.8308 -13.6263 -481.635 146.119 -420.813 -27.3841 -29.1364 -209.553 -259.711 704.363
220 1 -24.5484 -54.3362 -7.41264 871.036 1198.01 874.207 -40.7963 -159.233 -48.4561 -837.166 440.442
316 1 -24.4576 -48.8411 -7.37902 884.856 941.465 1050.02 -85.9781 74.1163 -86.6622 -835.229 286.917
2709 2 -17.9713 -51.694 -11.966 -157.898 -641.916 -432.139 53.9572 170.96 29.5197 -242.096 525.143
310 2 -22.9853 -48.9257 -8.0121 -564.067 -525.065 -516.669 -34.8345 -106.729 50.4559 -252.889 217.647
2801 2 -20.4376 -48.8445 -7.44677 -347.318 -611.797 -459.301 39.9673 193.464 53.2668 -241.66 422.446
302 1 -21.5503 -48.916 -8.64988 799.665 840.801 1112.71 62.454 5.63135 -151.468 -834.016 409.188
304 1 -24.1829 -48.8566 -13.7265 922.251 1286.03 965.802 -54.3599 -66.3911 36.0007 -823.994 379.957
2806 2 -17.8883 -48.801 -7.89474 -421.881 -683.579 -493.063 3.97047 -108.205 79.0794 -247.76 329.936
2710 2 -17.8092 -54.3037 -7.74226 -540.346 -595.118 -438.209 27.4494 -73.454 -41.0878 -250.617 206.247
2613 2 -18.0057 -56.9712 -12.0184 -470.359 -577.603 -396.619 7.22179 246.039 -28.2004 -250.246 457.16
5109 2 -12.848 -57.1524 -10.7345 -242.422 -668.655 -497.961 -5.90859 129.189 23.4976 -240.131 435.759
2610 2 -15.4164 -57.1521 -11.3603 -266.509 -566.201 -456.399 -20.4349 -141.864 23.6624 -250.314 363.694
5200 1 -13.8364 -54.4324 -13.662 905.529 1116.2 1104.9 -94.513 -49.825 -34.1536 -836.934 282.619
2607 1 -16.9469 -57.1113 -10.7961 1004.24 1195.63 1015.39 -84.0732 -100.941 -20.7719 -830.527 296.123
2616 2 -17.1766 -55.7716 -9.88945 -535.999 67.358 -395.569 -36.8418 -62.6846 231.576 -249.859 689.763
2702 1 -16.8899 -54.3855 -9.02262 930.971 1107.37 955.708 34.9272 86.1612 57.4855 -835.214 251.417
2703 1 -16.8659 -51.6582 -10.785 735.906 1165.45 1096.49 -117.455 89.2305 -13.5265 -834.275 474.833
2706 2 -15.4023 -51.6932 -11.3494 -603.354 -560.025 -579.663 -12.5153 -114.692 54.341 -251.854 224.062
2708 2 -17.0099 -53.0474 -9.92711 -570.422 -24.322 -504.247 10.105 6.02272 -129.607 -249.058 563.272
2712 2 -17.1285 -50.2331 -9.96432 -513.402 109.833 -497.906 -5.58778 -67.5655 169.726 -252.074 692.253
5101 1 -13.9283 -57.124 -11.9323 777.516 1120.99 1142.17 -1.45948 -108.306 155.02 -837.646 482.691
5103 1 -11.2968 -57.1814 -10.2526 1090.02 1110.7 1020.22 45.7275 -181.34 36.7148 -840.68 340.167
5112 2 -11.0672 -55.7834 -9.42936 -564.742 -37.1147 -484.935 4.49503 28.6119 168.564 -245 574.812
5197 1 -13.9482 -51.6553 -11.9671 656.457 1231.51 1288.82 -46.1394 -108.932 -139.584 -830.52 683.641
5198 1 -11.2054 -54.4051 -8.56668 729.951 968.32 1073.45 -71.7558 -210.339 32.0846 -840.979 494.161
5199 1 -11.3312 -51.6466 -10.2714 909.291 1033.58 771.664 -25.7194 45.4939 -69.4701 -836.187 272.332
5201 2 -15.3539 -54.5007 -8.5044 -238.37 -667.976 -605.353 -13.2919 120.828 -50.2966 -244.12 462.058
5203 2 -13.6666 -53.0672 -12.7946 -454.629 105.978 -497.061 -8.71711 -16.6435 223.028 -250.864 700.108
5204 2 -11.1776 -53.087 -9.51031 -532.967 -97.6797 -489.35 8.5165 40.6572 -152.62 -248.855 497.44
5205 2 -12.9079 -51.5829 -10.7711 -351.519 -601.212 -490.557 -13.6082 184.007 -28.5704 -239.888 389.283
5206 2 -12.6752 -54.4333 -7.88321 -227.525 -591.45 -576.513 11.7404 -60.174 18.4432 -245.112 373.53
5207 2 -13.6614 -55.8259 -12.8012 -461.575 -144.427 -541.449 -5.39882 31.6793 -116.267 -253.401 419.46
5208 2 -11.1097 -50.3332 -9.40612 -539.856 8.94289 -531.696 -66.9027 -24.9067 121.599 -253.025 597.006
5303 2 -13.7784 -50.2554 -12.9557 -473.101 87.7172 -436.974 51.536 -4.36471 -203.812 -244.988 654.374
5212 1 -14.2056 -54.4277 -7.41343 847.72 1295.39 1068.81 -93.0739 -72.5333 40.3417 -838.088 443.812
5106 2 -10.2813 -57.161 -11.5674 -304.736 -612.436 -142.954 24.5441 -246.607 2.73459 -242.5 595.741
5296 1 -13.9586 -48.8539 -13.7153 947.141 867.807 704.613 -79.2517 -5.75259 -129.812 -843.349 339.659
5308 1 -14.2864 -48.8879 -7.35531 689.35 1002.05 1062.9 54.9462 35.7111 -33.816 -834.627 369.898
5302 2 -12.8131 -48.9767 -7.92699 -377.018 -653.301 -557.827 20.2988 -97.7744 -56.4666 -248.654 313.928
5294 1 -11.3098 -48.9435 -8.49911 811.713 1180.13 1127.02 33.0629 -3.31961 95.0811 -824.187 386.546
27486 2 -25.5287 -62.653 -4.34687 -524.237 -692.177 -521.469 35.7318 40.6827 -48.9236 -245.425 211.311
29 2 -25.613 -65.477 -0.211964 -479.92 -637.418 -520.635 38.0346 146.373 -44.315 -238.78 307.501
125 2 -25.4288 -59.8506 -0.523643 -448.54 -633.569 -501.021 -62.3312 74.7956 -89.649 -247.634 282.54
2524 1 -19.0014 -65.4552 -6.57096 1006.82 1133.71 953.685 75.5379 -158.392 40.9862 -828.658 350.842
2620 1 -18.9398 -59.9281 -6.65872 1024.06 946.676 1174.58 34.8931 -123.166 86.4806 -835.374 334.502
25 1 -24.6318 -62.6822 -5.66453 920.111 962.514 813.274 -30.6147 -11.9799 -29.2071 -842.811 153.44
26 1 -21.9968 -65.4053 -2.18987 1028.57 1107.64 826.202 18.8545 28.5076 105.691 -840.984 316.58
27 1 -21.9806 -62.6928 -3.94294 1104.47 1133.54 1202.01 -4.62035 12.4115 -11.3724 -827.961 91.8632
30 2 -20.4293 -62.7534 -4.57063 -143.256 -624.307 -540.869 -3.53763 -138.975 2.25056 -241.64 506.19
31 2 -24.7634 -64.1265 -6.30558 -587.052 65.6297 -567.905 -79.7496 -36.2856 79.4423 -245.352 675.149
32 2 -22.099 -64.084 -3.09579 -589.531 -24.21 -499.737 -100.472 95.63 -126.861 -253.043 618.78
33 2 -23.1004 -62.5991 -5.15107 -328.761 -621.271 -290.979 -80.1906 243.535 -86.733 -241.823 563.763
34 2 -23.1827 -65.2961 -1.11519 -414.853 -602.531 -219.197 -33.1504 -175.234 16.8984 -244.793 454.421
36 2 -22.0779 -61.2892 -3.10169 -556.583 -59.5677 -458.889 -37.0597 -85.728 141.603 -255.25 542.526
122 1 -21.9592 -59.9792 -2.19802 1062.38 933.901 1101.18 -71.9708 -48.7357 6.64251 -838.455 213.994
127 2 -24.8227 -58.5793 -6.51706 -525.599 -195.344 -657.239 -24.4036 10.2379 28.3743 -255.843 417.598
128 2 -22.2803 -58.5991 -3.00257 -500.182 81.9726 -414.581 -25.2411 30.6707 -262.862 -249.202 713.037
130 2 -22.8674 -59.9797 -0.831885 -420.871 -556.616 -194.242 4.043 -218.551 49.576 -242.919 501.266
131 2 -24.9126 -61.3553 -6.52321 -495.08 97.4162 -465.167 106.695 -69.4946 -179.249 -249.709 692.281
2521 1 -18.9055 -62.6813 -5.0052 823.943 1002.94 1083.36 21.1184 33.2645 -35.8168 -839.015 247.809
2525 2 -20.5993 -65.4272 -1.40274 -382.848 -625.728 -455.626 -12.2503 104.868 -16.8245 -245.711 284.433
2527 2 -18.6757 -64.0007 -5.87212 -588.348 -20.9391 -562.762 123.367 112.71 39.8728 -250.834 629.784
2621 2 -20.4302 -59.9468 -1.62637 -274.635 -583.255 -455.505 -18.2125 243.36 -45.6144 -239.405 507
2623 2 -18.7724 -58.5535 -5.80935 -433.294 102.615 -343.132 -57.2757 -46.3873 315.374 -249.733 749.459
2627 2 -18.71 -61.2244 -5.76581 -572.277 -88.9751 -491.207 -4.16206 -24.9676 -165.184 -249.445 533.621
2632 1 -19.4348 -59.9972 -0.347502 1044.85 944.608 1091.53 -4.35485 -60.4014 -16.1312 -844.529 169.377
2536 1 -19.4161 -65.4719 -0.315042 856.053 1038.85 1072.03 -16.5375 33.6576 187.702 -840.63 387.936
2436 2 -22.1499 -66.8482 -2.98291 -542.862 46.9413 -391.012 69.4559 59.0815 183.851 -246.841 638.523
2626 2 -17.8577 -60.0189 -0.78372 -29.8518 -547.407 -443.425 3.6744 -192.038 -2.47237 -241.852 579.271
35 2 -24.9067 -67.0112 -6.47741 -502.406 117.149 -482.646 68.1257 22.4636 -181.451 -249.186 697.285
2529 2 -17.8947 -62.7559 -3.73604 -231.443 -544.943 -391.783 -52.1208 170.147 -86.7743 -244.975 437.394
2530 2 -17.9689 -65.4215 -0.991864 -227.033 -538.336 -476.296 -8.31441 -197.215 -6.35565 -250.586 445.483
2522 1 -16.4302 -65.5111 -1.52172 985.176 990.856 1143.06 59.6747 -64.8781 -67.7457 -831.18 247.266
2523 1 -16.352 -62.8 -3.17372 1178.42 877.715 961.804 -68.0787 -24.2954 147.446 -837.607 391.287
2526 2 -15.3447 -62.7377 -4.44647 -274.193 -609.252 -274.575 71.9338 -213.042 -41.9507 -244.323 518.749
2528 2 -16.0629 -64.1232 -2.36535 -522.996 -157.953 -471.953 59.4143 2.69431 -153.385 -251.093 445.445
2532 2 -16.1841 -61.439 -2.27276 -580.063 -81.2374 -500.778 -15.2387 -52.9462 107.133 -246.58 509.021
2618 1 -16.3576 -60.0432 -1.48886 950.767 1057.94 993.155 -43.5793 -171.725 -26.2637 -840.778 323.999
2624 2 -16.2453 -58.6695 -2.36896 -531.422 44.1449 -410.983 0.963718 -6.20329 -205.338 -251.054 634.879
5017 1 -14.3046 -62.6697 -5.72328 1032.62 1063.99 1053.37 -82.8461 -69.8247 -103.645 -837.023 261.166
5018 1 -11.7339 -65.3597 -2.13833 1197.53 1188.16 968.548 -52.3971 1.76588 112.671 -833.93 310.976
5019 1 -11.7286 -62.6872 -3.96038 902.438 971.711 1082.01 -65.1088 -144.074 6.83984 -841.303 315.807
5023 2 -14.4625 -64.0527 -6.50289 -620.929 22.3364 -686.346 -16.8565 -33.1056 18.251 -243.905 682.122
5024 2 -11.8524 -63.9852 -3.00754 -569.643 -28.7877 -481.984 18.7723 8.89106 -157.437 -250.689 573.106
5025 2 -12.8079 -62.7579 -5.12343 -447.957 -633.712 -535.061 -102.865 99.0842 -111.287 -242.023 352.511
5026 2 -12.9123 -65.3149 -0.997373 -200.241 -559.644 -127.174 57.2929 -287.2 -53.6356 -248.453 653.222
5028 2 -12.0162 -61.2934 -3.16506 -489.635 -172.82 -415.268 -10.6261 -40.2282 198.741 -248.068 453.904
5114 1 -11.7136 -60.0881 -2.0964 762.311 1017.96 943.783 6.46126 70.7448 9.73029 -836.747 259.462
5117 2 -15.191 -60.0175 -0.419333 -439.271 -714.011 -598.942 39.3997 25.5275 -44.0696 -242.868 263.719
5119 2 -14.4662 -58.5145 -6.49148 -480.394 -98.294 -447.533 44.7345 44.0374 140.092 -255.924 453.015
5120 2 -11.8533 -58.6486 -2.84637 -488.066 -44.5341 -426.097 82.7385 -92.7338 -207.196 -248.395 590.086
5122 2 -12.6235 -60.15 -0.808015 -583.334 -573.432 -343.187 -58.7275 -79.6429 81.3579 -250.19 323.456
5123 2 -14.55 -61.2445 -6.52848 -536.202 15.8822 -571.772 -59.1984 27.9303 -116.675 -247.784 615.948
5021 2 -15.4237 -65.5831 -0.24074 -253.529 -602.374 -431.039 -70.3682 213.276 -60.0957 -243.557 503.417
7613 2 -10.2479 -60.1654 -1.52606 -748.4 -560.442 -597.897 98.7944 62.2585 51.7024 -245.652 280.393
27582 2 -25.5258 -57.1098 -4.4626 -633.941 -563.719 -263.281 -57.6075 -55.5092 34.5358 -246.853 372.92