ITEM: TIMESTEP
1820000
ITEM: NUMBER OF ATOMS
29952
ITEM: BOX BOUNDS pp pp pp
-2.5615833775063237e+01 3.5601128117061187e+01
-1.2195111038571872e+02 1.3193640471991748e+02
-2.1035324467156940e+01 3.4903177627851115e+01
ITEM: ATOMS id type x y z v_StrAtomXX v_StrAtomYY v_StrAtomZZ v_StrAtomXY v_StrAtomXZ v_StrAtomYZ c_PEAtom v_VMS
4896 2 -16.2687 -73.1221 -18.0174 -290.047 151.334 -396.224 36.7257 56.6231 106.23 -169.017 548.155
7392 2 -11.9674 -72.5859 -15.3926 231.3 -497.158 -898.196 -96.7957 139.218 117.911 -279.978 1054.32
4982 1 -16.0138 -71.8623 -17.1514 847.512 660.051 1669.93 162.146 -52.9284 78.68 -808.95 985.661
7478 1 -10.6993 -71.6386 -15.3208 253.505 216.649 1944.45 8.24385 -153.745 81.6254 -721.222 1736.12
4812 2 -16.6892 -71.6401 -15.6017 -419.434 -361.349 -580.268 -159.345 -177.52 100.385 -265.108 489.416
7396 1 -13.1923 -71.6041 -15.6712 411.258 285.857 1987.01 -20.7614 -107.025 51.6439 -711.81 1655.29
7481 2 -14.432 -71.6221 -16.7248 275.953 -171.904 -694.525 -93.1639 498.442 -164.808 -282.287 1249.25
2400 2 -19.6048 -69.5234 -18.4766 299.102 -518.075 -248.903 -194.829 556.563 -126.903 -274.827 1269.54
4901 2 -20.9647 -69.4294 -15.2409 276.416 -568.333 -572.27 -86.185 206.453 -155.793 -276.821 969.489
4904 2 -18.3937 -69.5364 -16.0111 -42.8458 -550.922 -447.525 -395.893 116.328 13.122 -302.845 852.998
4912 1 -19.4631 -69.2025 -14.656 691.481 683.018 1149.39 246.633 209.668 -32.5765 -742.344 728.815
2494 2 -22.0345 -69.0112 -20.2831 -37.6362 -562.369 -103.828 -6.53381 576.728 -94.1628 -275.017 1126.75
2316 2 -21.9544 -69.1227 -17.5325 -459.531 -518.151 -241.615 13.1164 -326.313 -131.352 -269.071 659.86
2486 1 -21.0868 -68.8643 -18.9535 1168.45 862.586 1183.46 12.8143 -53.6607 -51.7947 -766.586 339.922
2410 2 -23.6952 -68.8531 -15.413 -214.837 -594.423 -614.1 -351.564 -86.8439 -126.484 -286.07 770.295
2402 1 -22.2494 -68.7858 -16.0265 404.303 967.011 1012.28 114.246 231.224 291.265 -781.104 893.43
2416 1 -25.0876 -68.4626 -14.8082 417.921 1084.6 1122.57 -120.138 84.1221 26.9651 -749.109 733.436
2407 2 -23.7757 -67.273 -20.2258 -590.369 -568.092 -425.424 -61.9611 -60.549 -12.5072 -267.867 216.827
4985 2 -20.6515 -67.2962 -18.9462 -616.205 -253.004 -548.717 32.4639 -70.6448 -105.144 -275.819 404.051
2408 2 -21.9714 -67.1645 -15.9241 -404.181 -386.89 -627.879 -58.0869 -58.5717 -144.412 -265.795 370.387
2401 1 -24.3728 -66.3401 -19.1019 809.216 955.074 569.082 151.426 -11.995 159.76 -803.764 509.663
2409 2 -23.4096 -66.2729 -17.8672 -461.792 -588.144 -457.81 35.3254 -75.8539 12.1411 -274.911 194.759
2403 1 -22.3319 -65.8262 -16.7199 819.981 676.881 1043.16 204.146 227.547 -120.472 -784.982 652.781
4897 1 -20.1982 -65.7547 -18.8371 317.59 823.731 1000.43 -84.8665 -23.3545 537.433 -775.386 1125.43
4905 2 -18.7031 -65.8489 -18.5044 -940.02 -695.83 -707.559 39.0867 -139.345 -57.2852 -275.443 359.974
2406 2 -21.069 -65.1696 -17.5352 -232.491 -394.586 -255.311 5.05169 -230.925 -76.396 -266.677 447.952
2507 2 -20.2829 -64.8617 -20.1163 -498.022 -519.661 -603.02 163.507 -182.755 -115.756 -275.606 479.396
11 2 -24.5346 -64.8579 -19.6621 -440.797 -349.515 -520.14 -82.7403 -56.296 -199.107 -260.472 413.336
4900 1 -18.1618 -69.4817 -17.6664 1043.27 825.6 984.812 129.732 -76.6358 395.188 -761.004 758.093
7399 2 -13.7595 -70.7529 -14.3971 -446.538 -219.127 -584.644 -162.157 -234.574 292.212 -280.62 776.092
7486 2 -11.8024 -70.5796 -16.154 119.079 -303.271 -1024.33 -22.0476 45.2875 -109.328 -317.309 1022.89
4990 2 -16.9524 -70.5736 -17.7521 171.372 -284.261 -687.653 -448.168 285.297 -207.778 -263.471 1237.09
4898 1 -17.1231 -70.3398 -14.9123 417.967 820.765 1281.92 398.696 67.597 35.1107 -736.324 1027.11
7397 2 -15.8274 -69.4055 -14.6833 244.171 -533.785 -692.543 228.42 43.0683 -106.121 -280.122 974.578
7394 1 -11.7816 -68.9262 -15.9475 706.748 354.657 1248.58 -98.2627 -58.7715 513.78 -745.919 1199.82
7402 2 -13.0979 -68.5722 -15.0946 -11.8638 -512.379 -915.322 -67.0085 37.7367 134.364 -277.78 828.53
7400 2 -12.0737 -68.0759 -17.2281 -504.847 -260.486 -798.594 -45.5452 254.769 -375.212 -274.096 917.102
4903 2 -17.5619 -68.0078 -17.861 -414.139 -202.512 -626.149 137.808 -73.5967 -189.726 -277.306 561.971
7401 2 -13.7449 -67.074 -19.131 -91.5353 -497.971 -218.781 -7.8462 418.501 -210.89 -275.493 888.09
7395 1 -12.3755 -66.8839 -18.257 620.744 933.685 1071.5 1.6675 -0.755841 661.688 -782.349 1213.9
7398 2 -11.2499 -66.916 -19.3748 -503.31 -636.446 -504.517 -96.92 -78.3595 -96.3112 -275.338 303.306
7393 1 -14.9106 -66.2842 -19.9639 659.941 1156.41 839.95 -18.6685 64.1322 355.224 -763.481 762.53
4899 1 -17.3541 -66.4093 -18.0341 324.334 806.307 1121.95 94.8667 45.8084 140.589 -782.754 759.372
4902 2 -16.1585 -66.005 -19.0377 -221.784 -486.961 -740.92 95.168 -136.723 -250.766 -274.439 688.519
4908 2 -16.8887 -65.7307 -16.6283 -396.199 -171.338 -514.733 79.0602 79.1134 150.856 -262.596 443.922
7404 2 -12.3781 -65.5386 -17.2861 -355.539 -0.77661 -270.232 70.1188 41.779 282.909 -271.728 602.468
5003 2 -14.1316 -64.8584 -20.3933 -259.642 -336.817 -514.308 256.963 -82.8082 -89.2615 -283.887 541.961
2412 2 -22.7344 -64.7133 -15.7008 -623.125 -343.506 -565.789 67.4787 79.1564 160.804 -264.937 418.896
2506 2 -18.3611 -63.8926 -15.4018 -446.219 -510.595 -648.241 -18.9789 -66.6003 68.2211 -257.845 245.564
2501 2 -20.818 -63.4272 -14.6109 -253.383 -490.765 -660.143 -112.313 -11.349 41.5561 -258.813 410.678
2 1 -22.3656 -63.2573 -15.0699 963.8 912.062 1016.62 -47.4594 90.0657 -128.941 -808.171 298.614
7 2 -24.1203 -62.3507 -20.3319 -333.658 -343.173 -481.02 -80.0353 55.6103 174.963 -270.2 375.146
2503 2 -19.8661 -62.4083 -19.6243 -490.786 -297.941 -347.1 -141.285 -90.5447 193.821 -272.182 476.765
8 2 -22.4271 -62.0907 -16.2179 -578.54 -214.504 -336.007 20.2689 52.9628 -185.655 -260.731 464.871
9 2 -23.1456 -60.7727 -18.4442 -367.883 -509.056 -413.915 -68.6471 154.362 -15.7806 -264.492 319.245
6 2 -20.6473 -60.8426 -17.6405 -305.071 -483.828 -499.39 -31.7375 -122.693 23.5727 -269.311 291.251
1 1 -24.3004 -60.9385 -19.5135 605.533 956.978 1090.94 120.929 -146.917 -42.6887 -801.192 550.122
2497 1 -19.5298 -61.0908 -18.7358 722.397 798.388 1116.46 125.596 5.32043 -149.05 -799.268 495.149
3 1 -22.169 -60.795 -17.1352 907.533 983.653 878.215 -12.0947 94.5536 -107.347 -809.673 265.924
107 2 -24.1949 -59.7616 -20.6671 -324.137 -545.582 -363.83 -7.10589 -41.5608 -253.063 -258.267 489.162
2603 2 -19.3541 -59.8314 -19.7608 -525.588 -389.198 -456.108 78.0289 -43.6678 -58.5112 -265.871 219.568
12 2 -22.4365 -59.4855 -16.217 -641.615 -420.775 -595.38 -43.6878 -100.343 149.902 -254.208 379.528
98 1 -22.255 -58.6103 -14.9216 900.768 883.204 812.216 -23.726 27.8922 -182.908 -819.725 333.141
2597 2 -20.6908 -58.7508 -14.614 -349.92 -474.004 -578.805 -210.137 32.0081 3.67684 -257.007 418.296
5034 2 -10.5246 -61.9394 2.91163 -111.569 -763.932 -281.499 -117.063 -252.305 -11.4737 -232.56 758.997
2602 2 -18.2145 -59.5917 -14.9558 -405.883 -606.954 -483.561 27.1028 -161.016 -4.09749 -259.528 332.983
2505 2 -18.049 -61.35 -18.1581 -41.6676 -473.317 -610.651 -29.0338 77.752 102.987 -265.898 562.979
2638 2 -18.4962 -58.5449 6.42799 -348.688 -636.171 -429.946 21.0311 -182.277 -22.9784 -237.673 410.457
5031 1 -11.8254 -61.4963 3.87114 977.987 1152.12 1112.18 187.254 -97.7828 77.0187 -862.193 420.279
7493 2 -10.8845 -64.4008 -15.4185 -165.451 -420.528 -423.835 66.7133 257.986 29.188 -267.05 530.563
5002 2 -13.4487 -64.3336 -15.1342 -487.388 -517.273 -137.979 -62.3618 -224.177 148.272 -254.646 601.505
4994 1 -12.2614 -64.2682 -16.2358 841.092 914.665 1104.3 -113.19 -17.7837 49.2997 -805.988 319.382
4997 2 -15.8901 -64.3246 -14.6712 -352.24 -535.487 -413.611 37.303 270.734 -44.2688 -254.113 506.008
2498 1 -16.8801 -64.2645 -15.9179 838.367 990.559 962.112 -146.505 -11.9422 -143.57 -807.81 382.489
2504 2 -16.5154 -63.0933 -16.9942 -563.892 -183.736 -445.486 48.9699 29.506 -170.433 -261.994 458.775
5000 2 -12.4011 -62.7832 -16.8491 -470.759 -103.341 -684.463 -33.6587 77.4594 -29.998 -262.602 532.243
4999 2 -13.3457 -62.3036 -20.0128 -557.152 -209.466 -742.278 -53.8335 -46.5201 142.15 -265.915 543.443
2499 1 -16.5391 -61.5981 -17.5874 972.593 737.67 1094.17 -11.4103 75.3595 -39.0255 -804.902 347.17
2502 2 -15.3483 -61.4093 -18.6736 -255.691 -389.126 -661.254 56.7099 -194.414 -35.681 -264.058 505.003
4995 1 -11.9805 -61.24 -17.0931 911.939 737.463 938.216 -22.719 -47.5154 -175.309 -804.964 369.104
4993 1 -13.9809 -60.9286 -19.365 763.572 615.155 1059.71 -48.6854 -75.0094 -55.0578 -797.001 432.162
5001 2 -13.0034 -60.58 -18.1842 -375.9 -561.425 -436.203 -126.644 175.81 -151.509 -265.403 486.391
2508 2 -16.2236 -60.5915 -16.3645 -479.287 -497.72 -450.26 13.9527 41.4415 114.773 -260.122 216.73
5004 2 -12.0228 -60.4817 -15.732 -575.809 -335.554 -633.412 -69.0625 -60.245 71.4269 -258.806 339.68
5099 2 -14.2189 -59.9261 -20.5689 -437.874 -446.724 -471.556 -24.6457 4.09816 -75.4032 -270.633 140.87
2594 1 -16.6962 -59.3945 -15.4347 918.528 776.886 938.368 3.91353 136.791 -107.041 -816.641 337.373
5090 1 -11.9814 -59.1589 -14.7821 743.908 1051.33 893.185 -54.9611 80.4757 -182.552 -818.55 446.508
5093 2 -15.741 -59.3923 -14.0728 -49.8774 -555.424 -229.97 18.1455 305.65 -62.1073 -248.38 699.85
7589 2 -10.4688 -59.2106 -14.263 -158.275 -599.859 -599.844 -104.486 -31.2545 18.4867 -253.826 481.349
4998 2 -10.4971 -61.2306 -17.7663 -117.304 -450.475 -480.427 -12.077 -201.636 -3.59809 -265.59 494.294
4906 2 -18.3618 -70.1466 -13.9146 215.07 -442.872 -927.693 -267.689 -56.2607 40.3744 -266.041 1102.85
4913 2 -21.1226 -69.5241 -7.44506 -62.8332 -1048.98 -252.531 118.892 191.198 -17.4129 -241.567 987.11
2422 2 -23.7357 -68.5549 -8.08578 89.8627 -386.115 -710.481 -68.167 -105.804 -57.5058 -263.616 737.295
2414 1 -22.1292 -68.5629 -8.21284 773.819 1130.16 956.286 -3.89064 77.7982 267.298 -801.685 572.537
2328 2 -21.8778 -68.29 -9.80553 -676.827 -400.92 -73.3944 23.182 -142.938 -270.124 -249.594 745.366
4915 2 -19.3522 -67.839 -13.9469 -588.951 -676.387 -419.4 35.9493 -133.287 85.5215 -280.565 361.015
2419 2 -24.8851 -67.4444 -13.6033 -453.271 -453.17 -122.341 73.0812 74.2777 193.854 -275.045 504.77
2421 2 -23.2256 -66.9591 -11.5559 -473.969 -539.736 -374.006 -70.526 176.308 16.7397 -254.363 360.428
2418 2 -20.706 -66.8639 -11.8762 -505.758 -527.681 -223.782 -76.4983 -225.258 32.5221 -255.939 509.044
2415 1 -21.8887 -66.9573 -10.7356 884.708 1176.78 683.06 195.101 -11.2052 54.7358 -825.05 555.358
2413 1 -24.6177 -66.5064 -12.2976 919.678 851.946 973.347 -53.3095 27.858 -99.6276 -818.975 227.451
4909 1 -19.4229 -66.7533 -12.8095 1033.09 677.728 761.972 -11.8945 51.6224 -261.782 -813.619 563.429
2424 2 -21.7168 -65.7256 -9.7244 -535.221 -466.1 -347.454 -1.93328 49.3138 203.382 -248.579 398.064
2519 2 -19.4024 -65.2932 -13.5059 -566.537 -363.276 -599.565 30.1757 -21.7868 10.2487 -255.212 231.495
23 2 -24.6287 -65.0262 -12.8624 -519.902 -436.132 -605.76 -104.81 55.4279 9.64129 -259.725 253.047
22 2 -23.3774 -64.9901 -7.83805 -365.613 -508.927 -463.678 33.59 -296.417 -17.2052 -235.878 532.883
2420 2 -21.2565 -67.447 -7.33099 49.0459 -1025.82 -323.641 52.9133 162.92 -6.87355 -226.72 990.866
4917 2 -18.1351 -66.7824 -11.8296 -569.244 -525.786 -219.44 76.6018 140.98 204.592 -254.147 558.438
4918 2 -18.5948 -68.4615 -7.20721 47.4664 -376.878 -763.765 44.7247 -167.312 -1.17706 -269.229 764.138
7408 1 -14.2628 -69.2367 -14.2218 556.58 779.14 1064.15 103.885 146.799 -262.113 -773.231 705.216
7409 2 -16.0356 -69.5618 -7.73929 171.405 -740.749 -492.135 -122.11 51.6105 8.02578 -240.189 848.514
7414 2 -13.4056 -68.7061 -7.95052 -90.011 -407.122 -778.121 -33.2807 -49.3688 -1.426 -270.675 605.383
7406 1 -11.8189 -68.5745 -8.03622 476.676 1138.26 984.882 -231.947 -166.791 25.6232 -803.781 778.824
4910 1 -17.2203 -68.4267 -8.01083 662.211 1282.41 970.799 18.2035 120.649 61.6941 -795.201 586.999
7411 2 -14.4079 -68.3819 -12.8847 -535.504 -163.006 -430.969 -130.122 -100.636 399.96 -261.231 819.649
4824 2 -17.554 -68.0112 -9.50589 -584.049 -353.168 -299.149 -77.0989 -118.564 -329.681 -250.837 674.366
7320 2 -11.3782 -68.1464 -9.49478 -545.076 -523.388 -384.157 99.1167 -126.055 -161.352 -255.644 422.044
4916 2 -15.916 -67.3931 -7.70788 222.203 -756.727 -628.379 -7.65254 -105.477 -36.9551 -233.01 941.692
7405 1 -14.4101 -66.988 -11.982 908.933 1007.15 1159.66 17.7558 76.931 -166.205 -810.738 386.596
7413 2 -13.0492 -66.9831 -11.0713 -174.405 -540.859 -453.906 -0.302211 184.296 109.49 -259.144 497.84
7407 1 -11.5595 -66.8807 -10.4955 729.31 1134.76 779.013 -0.392931 94.8639 -121.85 -818.005 467.169
4914 2 -15.7638 -66.8282 -11.1181 -398.301 -515.447 -546.272 -49.7014 -246.998 39.3219 -257.433 461.907
4911 1 -17.2133 -66.7173 -10.5082 739.902 1183.97 967.777 123.622 103.058 -25.8936 -821.726 477.132
5015 2 -14.3528 -65.7846 -13.0797 -477.141 -92.5881 -458.046 24.5639 -7.97798 -193.012 -258.271 504.643
4920 2 -17.3002 -65.4592 -9.49645 -544.685 -433.474 -258.054 111.148 22.498 277.198 -253.343 575.973
7416 2 -11.3429 -65.6077 -9.52728 -485.675 -489.608 -428.86 37.7432 123.061 255.507 -248.139 499.022
5014 2 -12.9564 -64.8149 -7.70356 -150.845 -521.908 -593.163 112.379 -136.288 35.34 -248.948 516.297
2596 1 -19.6465 -58.4336 -20.4418 808.535 754.427 796.343 -52.728 108.754 -62.1208 -803.343 240.451
2512 1 -19.3426 -63.8548 -14.1729 734.419 739.052 952.26 122.188 152.066 -197.28 -823.171 526.676
10 2 -23.5118 -62.9498 -14.0029 -209.02 -558.171 -552.217 28.1232 -135.017 29.2491 -259.445 423.665
14 1 -21.905 -64.6563 -8.4938 1078.72 965.173 1023.47 124.752 33.466 -61.7898 -852.286 266.786
106 2 -23.1725 -59.2582 -13.7633 -206.809 -466.566 -436.729 45.6721 -204.028 58.6137 -254.892 449.511
16 1 -24.9055 -63.5602 -13.4301 1045.47 848.792 922.251 28.7828 96.1072 -190.271 -819.279 410.408
20 2 -21.8355 -63.2601 -9.23618 -639.561 -364.564 -408.555 25.4538 -81.2367 -176.73 -242.179 425.328
2515 2 -18.8425 -62.7294 -13.1457 -622.416 -445.638 -527.115 -15.7931 3.04277 151.116 -251.61 304.582
18 2 -20.8117 -62.4255 -11.4854 -124.994 -449.745 -549.717 152.876 -134.184 -38.3151 -254.25 525.792
21 2 -23.4882 -62.1376 -10.7978 -523.372 -566.221 -639.776 -170.999 -189.194 100.3 -252.956 485.473
2517 2 -18.4183 -61.5752 -10.833 -424.837 -624.243 -648.814 -82.4843 -0.827002 -0.319632 -258.453 256.28
15 1 -21.9563 -62.1411 -10.4439 718.296 1121.12 1003.21 47.448 93.1856 -132.084 -827.727 462.404
2509 1 -19.3717 -61.7116 -12.0322 894.538 982.726 747.354 137.311 -180.369 -128.981 -816.076 496.478
13 1 -24.9115 -61.5234 -11.1915 783.877 871.991 839.393 85.4701 258.501 -150.326 -831.425 544.18
2615 2 -19.5558 -60.3156 -12.7947 -467.934 -258.773 -437.802 117.051 -64.2288 -185.105 -263.167 441.163
24 2 -21.7429 -60.5657 -9.97578 -620.457 -123.466 -452.613 -55.6144 -65.0551 135.746 -251.912 518.663
119 2 -24.8062 -60.1093 -11.8852 -578.047 -530.166 -509.577 -47.8058 -34.4292 -0.00427463 -256.835 118.805
112 1 -24.6752 -59.1031 -13.1065 967.048 987.621 676.188 -180.038 -102.041 -112.982 -826.922 507.72
2608 1 -19.2958 -59.1542 -13.8877 778.827 988.07 1119.54 158.491 181.558 -98.3322 -813.938 540.216
124 1 -24.5368 -58.9747 -7.80383 1011.17 1044.64 867.784 2.06521 145.723 -131.771 -835.643 377.212
110 1 -21.8126 -59.0822 -9.38765 1208.81 871.281 939.994 53.5712 170.201 -110.946 -833.529 477.384
2609 2 -20.7265 -58.9187 -8.14532 -249.362 -585.796 -197.543 60.3141 245.535 203.341 -242.839 670.167
118 2 -23.3418 -58.8452 -8.87452 -178.481 -558.935 -451.077 -29.2826 -149.677 70.7667 -253.16 447.38
2614 2 -18.1785 -58.6887 -7.62104 -189.633 -663.98 -421.075 -44.618 -256.221 165.37 -239.643 673.608
2513 2 -20.8738 -64.6728 -7.28293 -516.296 -805.372 -361.884 -143.872 98.0861 10.3235 -238.476 493.279
19 2 -25.4443 -62.5355 -12.3453 -680.752 -399.733 -554.694 -21.695 -22.7706 174.648 -245.413 392.315
5129 2 -15.8747 -59.109 5.88831 -32.7311 -658.503 -470.871 69.632 75.6799 72.5653 -244.076 597.417
2510 1 -17.1462 -64.4588 -8.21634 1041.61 988.853 1065.11 -97.1835 113.041 -95.6312 -838.742 314.134
5009 2 -15.6721 -64.3894 -7.61384 -165.111 -666.33 -473.046 -22.8611 95.7892 62.3543 -245.645 482.142
5008 1 -14.4677 -64.3442 -13.8445 950.76 1035.68 1182.73 -30.5109 -60.7364 45.1351 -814.124 247.579
5006 1 -11.4871 -64.5592 -8.29402 958.646 1098.69 1197.59 112.319 43.2308 -268.742 -842.506 550.786
2516 2 -17.5253 -62.9884 -8.7623 -566.46 -272.061 -406.75 63.4683 -61.2309 -176.323 -249.038 426.335
5011 2 -14.4555 -63.1434 -12.7357 -505.158 -15.8777 -141.946 -67.2928 -89.4051 367.004 -259.125 797.024
5012 2 -11.3514 -63.105 -9.07029 -492.457 -329.379 -394.177 46.2585 -120.577 -187.334 -244.28 418.98
2514 2 -15.8511 -62.2716 -10.6784 -81.969 -599.854 -450.01 -72.6572 -143.985 95.7958 -255.98 564.463
5010 2 -10.61 -62.173 -11.5026 -512.985 -493.712 -418.441 7.8074 -126.624 25.0213 -253.811 240.104
5013 2 -13.073 -62.1305 -10.7731 -300.107 -618.644 -603.807 76.6937 47.2091 88.8443 -250.209 380.752
5005 1 -14.4847 -62.0236 -11.4887 894.286 1033.8 960.618 39.8405 3.51769 70.4003 -823.286 185.143
2511 1 -17.1785 -61.8138 -9.83166 993.535 1047.06 1073.9 -27.7012 -127.82 -81.7996 -824.567 276.427
5007 1 -11.5558 -62.0011 -10.2213 787.242 875.396 1156.63 9.19765 92.4328 -169.064 -834.368 472.534
5111 2 -14.5716 -60.4888 -11.9424 -688.147 -323.696 -562.158 25.9118 33.7711 104.775 -253.393 375.699
5016 2 -11.3671 -60.5271 -9.61892 -474.576 -275.925 -550.667 -18.8224 -43.8934 219.015 -253.586 459.47
2520 2 -16.8994 -60.3559 -9.14841 -603.28 -213.823 -560.591 -11.7771 -27.7969 175.219 -247.115 481.366
5098 2 -13.0758 -59.3478 -13.6368 -381.764 -545.175 -556.736 51.8337 -29.4818 80.7613 -258.5 242.819
5104 1 -14.511 -59.271 -12.9506 1092.34 663.608 983.493 -166.288 166.708 -36.8136 -824.271 565.145
2606 1 -16.898 -58.8308 -8.68803 937.829 813.017 1045.32 -43.1916 -139.278 -182.853 -843.644 452.376
5116 1 -13.988 -58.9472 -7.42885 915.504 887.268 890.418 17.0565 227.322 -329.313 -830.628 694.233
5102 1 -11.3973 -58.9976 -9.0992 840.456 1055.34 925.587 -73.767 -66.9069 -160.568 -831.145 377.133
5110 2 -12.8399 -58.6393 -8.4567 -461.682 -515.256 -560.797 -37.4985 -53.0842 101.822 -251.197 226.185
7505 2 -10.3064 -64.5372 -7.16385 -93.0835 -633.649 -231.589 -65.9254 384.314 156.453 -240.445 875.263
9893 2 -10.3458 -68.7321 -15.2461 41.4284 -418.116 -708.322 -152.565 216.035 -56.9636 -277.259 805.195
2428 1 -25.1668 -68.605 -7.33257 883.638 1241.85 851.889 8.89659 -38.1187 -41.2773 -803.144 387.82
4924 1 -20.1092 -68.5036 -6.68082 930.047 1138.31 683.522 -178.638 124.759 -65.6052 -803.792 557.523
2431 2 -24.7883 -68.3914 -5.8271 -792.37 -527.379 -592.665 131.357 136.541 142.812 -250.516 475.46
4927 2 -19.9728 -68.1525 -5.16045 -743.014 -365.43 -301.781 158.165 1.59667 317.042 -246.546 739.769
2432 2 -23.0754 -67.7767 -1.20702 -540.402 -447.496 13.6258 123.39 -398.847 -138.222 -257.029 918.876
2433 2 -23.5652 -67.2412 -3.70438 -504.089 -697.359 -254.753 -99.1666 71.3095 45.7251 -242.372 445.803
2425 1 -24.7674 -67.2192 -4.797 1330.97 1393.29 481.897 193.193 175.683 -516.673 -839.423 1335.34
4929 2 -18.4261 -67.2006 -3.1432 5.85863 -511.361 -228.051 -24.0196 353.748 -18.9465 -237.302 761.228
2430 2 -21.1028 -67.0079 -3.0717 -579.698 -599.695 -395.282 117.238 -341.459 -17.0655 -247.251 655.735
4921 1 -19.8133 -66.9815 -4.00438 1168.05 1337.73 827.177 -150.211 365.173 -212.645 -843.234 897.899
2427 1 -22.5755 -66.9117 -2.50656 1081.66 1138.85 713.951 -11.1096 214.998 -4.90415 -845.04 546.465
35 2 -24.6225 -65.7431 -5.66603 -667.072 143.605 -209.037 3.52967 -170.844 -292.366 -238.667 916.356
2531 2 -19.7808 -65.592 -4.9067 -559.519 -262.727 93.2729 38.2469 -147.789 -260.485 -241.874 770.681
2436 2 -22.8277 -65.3226 -2.15389 -603.208 -18.1168 -531.442 20.093 -94.1106 -42.0936 -238.732 581.884
2543 2 -19.7253 -65.2698 -0.320153 -663.419 -452.72 -444.046 71.2848 -179.164 -172.067 -231.416 496.651
9905 2 -10.7358 -69.5052 -7.28573 -57.5168 -758.57 -430.31 243.887 365.992 100.168 -228.047 989.695
7420 1 -14.8199 -68.6014 -7.29156 261.606 1270.55 1232.34 -107.222 170.205 -140.789 -803.542 1077.84
7412 2 -11.2015 -67.432 -7.01662 -59.7353 -966.184 -486.541 179.828 266.383 92.5817 -232.164 975.983
7332 2 -12.3004 -70.2429 -1.99073 -445.534 -121.096 -169.055 60.7942 -19.939 0.725676 -123.506 322.928
7418 1 -12.5615 -69.3295 -0.718242 1247.09 1235.29 1498.04 -124.047 -50.4289 343.803 -931.756 688.819
4928 2 -16.3179 -67.8975 -1.28077 -348.773 -365.785 -15.1215 -161.404 207.085 -348.209 -234.474 829.364
7423 2 -14.5676 -68.3175 -5.70712 -594.112 -606.715 -293.396 165.345 -17.4608 250.279 -241.203 604.342
7424 2 -12.4366 -67.7497 -1.26679 -595.15 -549.379 -439.474 101.505 0.904076 -245.648 -207.063 480.776
4926 2 -15.9051 -67.0705 -3.85515 -430.907 -683.395 -159.116 68.8924 -296.486 24.0635 -232.925 697.089
4923 1 -16.8778 -66.9596 -2.5277 1340.72 1054.45 1256.22 -46.9364 204.96 -56.4393 -856.149 455.073
7425 2 -13.2926 -67.0694 -3.68923 -311.778 -824.596 -338.521 116.077 99.6667 75.2599 -229.899 580.687
7417 1 -14.5398 -67.0946 -4.70832 1148.4 1428.97 576.161 -170.932 180.57 -420.983 -863.287 1133.08
7419 1 -12.2577 -66.7669 -2.49998 965.682 1320.07 975.692 -295.261 36.3771 -26.2366 -886.315 624.27
7422 2 -10.7396 -66.7284 -3.01796 -362.488 -689.98 -414.841 59.9606 -208.903 117.469 -230.562 525.311
5027 2 -14.4409 -65.7152 -5.64373 -595.482 -171.364 -305.936 59.6676 -151.776 -179.571 -237.725 563.415
4932 2 -16.8145 -65.4212 -2.05051 -660.422 -584.377 -655.094 50.6878 -71.6349 7.86923 -236.224 169.394
7428 2 -12.6783 -65.2593 -1.93824 -386.453 -425.998 -535.288 59.4672 13.4905 248.635 -225.413 463.079
7426 2 -14.1447 -69.3709 -0.263485 -3.97764 -669.36 -720.918 -72.9932 68.8283 -170.401 -207.597 772.66
131 2 -24.5967 -60.4617 -7.24033 -554.365 -321.595 -332.805 -83.6725 -11.9809 -250.489 -243.369 511.239
2518 2 -18.2631 -64.8998 -7.09292 -312.763 -448.859 -340.341 133.691 -319.279 30.3739 -250.286 614.601
28 1 -24.5683 -64.5955 -6.82407 1276.71 960.737 1003.37 86.1697 245.429 -99.0581 -860.95 566.218
2524 1 -19.6175 -64.6245 -6.27346 1260.19 915.085 1077.68 -65.9702 152.759 -199.281 -848.104 540.022
2620 1 -19.5958 -59.0095 -6.9752 1083.08 1098.24 938.24 -69.6464 95.0811 -37.6347 -844.211 263.297
2536 1 -19.7019 -63.7066 -0.868098 840.856 1199.88 839.113 -109.71 177.627 -94.8872 -848.995 536.006
26 1 -22.5889 -63.6883 -2.10697 954.329 1032.93 903.2 -67.119 263.012 156.053 -848.554 553.995
2530 2 -18.4624 -63.4923 -1.80827 -399.235 -652.51 -563.345 83.1751 -119.713 58.2729 -245.002 351.355
2525 2 -21.1324 -63.4032 -1.50303 -415.141 -559.327 -609.54 55.2039 -68.2691 50.5311 -245.102 247.661
34 2 -23.7702 -63.096 -1.22711 -317.614 -631.835 -569.916 63.5872 -224.088 25.3688 -235.16 497.815
31 2 -24.2288 -63.0822 -6.37765 -658.39 -108.741 -551.322 -15.1159 -131.352 9.83472 -242.325 554.494
2527 2 -19.6456 -63.1108 -5.72743 -652.923 -350.985 -597.915 -97.7836 -123.355 169.178 -238.53 487.628
32 2 -22.6263 -62.8849 -3.46282 -664.182 -219.985 -742.188 127.738 -88.2913 -108.956 -234.326 588.216
25 1 -24.3933 -61.522 -5.95289 959.94 1193.54 871.031 -77.6624 177.752 -110.108 -845.567 482.177
2521 1 -19.4782 -61.5955 -5.25292 1092.86 868.971 1177.8 99.4401 150.512 -106.769 -848.757 456.274
27 1 -22.2037 -61.3253 -3.80614 1179.35 1138.17 859.056 11.2058 174.664 47.7489 -839.803 435.7
30 2 -20.6355 -61.2756 -4.18535 -254.212 -584.26 -415.706 -46.7742 -261.039 -7.69461 -248.835 541.181
33 2 -23.12 -61.0691 -5.12816 -472.591 -740.986 -307.875 43.7526 117.777 114.373 -241.837 479.559
2627 2 -19.5217 -60.5566 -6.49866 -635.253 -263.314 -402.183 -19.6672 -81.1553 -50.2616 -240.471 366.701
36 2 -22.6227 -60.4317 -2.54295 -672.663 -568.608 -188.838 -87.8369 -169.058 158.951 -244.871 615.836
2621 2 -21.0175 -59.3979 -0.79975 -319.943 -514.143 -587.239 97.1086 64.1825 116.354 -238.922 372.176
122 1 -22.5662 -59.4213 -1.2842 1043.75 979.001 845.026 -1.41201 246.535 -89.1861 -849.72 486.85
2626 2 -18.4086 -59.533 -1.08841 -191.983 -576.801 -375.847 -8.42522 -276.377 57.5215 -236.534 591.97
2529 2 -17.96 -61.4476 -4.60005 -350.886 -559.576 -499.898 -29.0454 140.59 83.7155 -235.134 342.799
40 1 -24.9856 -63.7016 -0.274468 1150.18 937.694 967.028 74.6958 55.7024 -57.5931 -838.689 275.273
5122 2 -13.3245 -59.5926 -0.000465873 -285.865 -731.357 -569.828 -11.4415 -142.914 86.0105 -229.062 486.266
5123 2 -14.0005 -60.4649 -6.94771 -555.16 -397.348 -608.938 -15.4915 39.4831 -8.63425 -251.789 204.704
7613 2 -10.6884 -59.4309 -0.114967 -318.669 -652.554 -460.585 -99.5977 48.3166 -8.73785 -242.094 348.177
5020 1 -14.2685 -64.5679 -6.77593 1061.64 1018.32 1239.31 -40.4772 110.322 -179.565 -847.498 423.436
2522 1 -16.9103 -63.8783 -2.03686 1041.71 674.79 1062.58 -124.793 205.986 -43.0231 -857.23 567.702
5018 1 -12.1908 -63.7881 -1.54646 942.429 1183.86 1240.42 58.21 51.2643 -113.942 -870.033 363.512
5021 2 -15.9728 -63.4221 -0.774968 -366.658 -713.471 -536.207 30.4266 108.501 -22.0237 -228.304 360.242
5023 2 -14.0227 -63.0704 -6.16249 -582.191 -201.538 -593.189 85.2612 -51.3709 115.827 -242.276 468.163
5026 2 -13.3395 -63.1373 -0.628852 -250.409 -789.947 -523.587 -95.2143 -127.708 155.747 -224.949 605.999
2528 2 -16.3866 -63.0958 -3.31769 -588.761 -331.135 -497.873 110.49 -105.61 -52.3318 -240.961 359.885
5024 2 -12.0799 -62.8554 -2.92244 -541.583 -337.489 -421.712 40.9545 -53.1049 -145.258 -224.076 329.167
2523 1 -16.5338 -61.586 -3.90683 849.722 1159.97 810.156 -91.3423 283.51 -141.513 -855.215 660.556
5017 1 -14.0852 -61.5247 -5.774 967.065 959.732 844.626 -137.138 122.867 -93.0349 -848.927 376.594
2526 2 -15.4912 -61.241 -5.03718 -740.038 -599.623 -492.372 17.7971 -137.948 61.7181 -233.14 340.214
5019 1 -11.9518 -61.3209 -3.4531 850.274 1284.17 848.13 28.1792 -112.02 -151.607 -860.375 546.063
5025 2 -13.005 -61.1946 -4.62655 -721.242 -703.219 -309.125 94.7479 44.2531 213.586 -236.476 576.542
2532 2 -16.4262 -60.5267 -2.709 -550.803 -475.057 -502.758 15.2967 -130.561 182.463 -242.563 395.127
5028 2 -12.1043 -60.3582 -2.17498 -506.44 -549.191 -245.157 32.2691 109.878 237.419 -239.154 538.251
5114 1 -12.0238 -59.3365 -0.897993 709.681 1343.95 893.521 37.476 31.1466 -117.52 -858.782 606.667
2618 1 -16.8323 -59.4527 -1.59973 1226.72 1047.64 809.031 -104.492 -33.3069 -226.968 -850.481 567.767
7517 2 -10.7184 -63.654 -0.88236 -331.885 -579.976 -599.805 47.8999 90.0046 42.7372 -236.2 321.756
5022 2 -10.5364 -61.1599 -4.21079 -518.407 -684.273 -490.705 -113.389 -76.359 171.222 -236.766 420.581
5117 2 -15.8809 -59.5657 -0.324136 -562.981 -671.749 -339.603 29.9343 80.6665 41.6717 -244.143 336.815
4930 2 -19.2146 -69.6703 1.88376 20.4181 -538.699 -582.279 -75.1734 383.134 20.8238 -232.713 893.032
2434 2 -24.7645 -69.3718 0.249447 -109.368 -722.574 -466.667 -110.312 -278.717 -29.1543 -255.825 746.118
2459 2 -25.2733 -69.0635 5.20471 -308.761 -537.902 -337.395 71.9845 179.872 58.5216 -242.271 411.881
4925 2 -22.0544 -69.0626 0.7626 166.411 -363.04 -888.858 -332.726 86.9452 94.522 -255.587 1103.09
4937 2 -19.963 -68.9142 5.40167 -604.404 -576.877 -437.455 -116.055 106.743 -36.5367 -235.934 320.355
4943 2 -21.2407 -68.8276 3.06146 -724.006 -674.641 -331.121 -10.234 -167.2 -77.0458 -222.998 489.275
4936 1 -20.6057 -68.9036 1.52445 1281.1 869.214 1345.17 94.1514 -103.901 -348.096 -833.947 789.073
4948 1 -18.6777 -68.8111 6.31166 854.635 1205.35 839.953 416.465 213.105 -141.172 -862.006 919.088
2446 2 -22.5842 -68.6986 5.30105 -411.763 -596.918 -484.391 54.6273 -41.0134 -15.2433 -234.89 202.004
2426 1 -23.4401 -68.5024 0.19644 788.604 1003.72 1045.61 14.5567 374.452 -121.861 -779.265 723.098
2438 1 -21.2116 -68.3261 4.58419 1032.81 988.389 804.098 204.807 -24.4228 55.2839 -864.311 425.345
2452 1 -24.0229 -68.184 5.79582 995.951 1635.32 724.691 5.20759 -55.0956 -179.276 -871.978 872.593
2443 2 -24.4312 -67.4165 1.15234 -268.784 -640.314 -700.275 -61.6546 -500.771 -77.8542 -299.17 972.527
4939 2 -20.0189 -67.4702 0.951892 -549.658 -317.271 -627.668 187.438 -86.0372 45.0504 -240.988 460.339
2444 2 -21.0266 -66.7755 4.3003 -680.661 -673.964 -663.599 -98.5713 15.2295 -84.0418 -235.534 226.397
2441 2 -24.2011 -66.6566 5.26246 -374.647 -205.002 -196.766 -3.63807 -20.6931 87.7739 -166.499 233.841
2437 1 -24.1904 -65.9566 1.7533 745.562 471.157 1021.12 -104.59 96.3236 -270.203 -816.673 711.708
2445 2 -22.7812 -66.0952 2.41182 -765.789 -579.811 -567.194 -47.3067 70.4288 80.9394 -249.225 279.896
4933 1 -19.5212 -65.9596 1.0942 950.618 834.816 1069.83 -82.275 -142.757 365.774 -858.793 724.048
2439 1 -21.6272 -65.6059 3.42336 1343.15 526.686 910.489 112.485 -112.497 -388.228 -856.715 1014.22
2442 2 -20.4108 -65.3307 2.31578 -549.101 -535.291 -388.777 -68.8082 -305.32 86.5652 -226.761 583.117
47 2 -24.2343 -64.8543 0.582409 -577.819 -405.309 -606.564 -42.1428 188.915 -142.547 -244.364 457.054
4941 2 -18.0242 -65.7121 1.46315 -675.986 -666.368 -531.773 115.557 9.67243 28.0566 -225.994 249.41
29898 2 -25.3654 -65.5123 2.66955 -625.849 -444.781 -803.604 -19.769 -120.56 244.725 -252.888 566.582
4944 2 -17.9204 -65.4064 4.10468 -831.487 -602.721 -558.2 193.071 97.0394 204.03 -230.337 573.991
4836 2 -17.6891 -67.7522 2.71464 -640.324 -545.156 -917.733 49.2559 -8.57282 200.199 -225.008 490.052
7432 1 -15.5391 -68.6003 0.00592086 1352.98 1152.77 1128.6 -172.198 195.439 -1.50811 -883.09 499.06
4955 2 -17.717 -70.0547 6.16712 -354.487 -822.841 -465.286 -112.732 -265.12 66.1534 -208.031 664.724
4940 2 -17.0252 -69.8819 3.61319 -605.544 -628.948 -84.4602 41.099 262.952 121.374 -227.4 735.504
4934 1 -16.6467 -69.3689 5.11473 879.229 1446.68 1148.45 196.379 72.5052 66.4762 -861.518 621.638
7433 2 -15.1177 -69.2256 5.5199 -113.698 -645.271 -618.91 211.231 214.044 13.5868 -218.419 735.599
9917 2 -11.4755 -69.4842 0.5206 -105.591 -510.592 -309.316 56.1407 437.673 17.8953 -209.814 841.492
7344 2 -10.7586 -69.2786 3.12977 -649.534 -558.948 -225.609 79.4341 -159.869 42.3755 -213.918 500.507
7421 2 -16.6475 -69.3196 0.96122 -410.05 -529.221 -314.819 65.1335 -352.829 -141.593 -227.784 693.511
4922 1 -17.6402 -69.2861 2.24355 1339.58 866.264 1155.49 79.5628 -57.403 37.0609 -864.969 451.418