ITEM: TIMESTEP
1420000
ITEM: NUMBER OF ATOMS
29952
ITEM: BOX BOUNDS pp pp pp
-2.5615833775063237e+01 3.5601128117061187e+01
-1.0865857032783201e+02 1.1864386466203077e+02
-2.1035324467156940e+01 3.4903177627851115e+01
ITEM: ATOMS id type x y z v_StrAtomXX v_StrAtomYY v_StrAtomZZ v_StrAtomXY v_StrAtomXZ v_StrAtomYZ c_PEAtom v_VMS
4904 2 -18.3776 -68.5705 -15.9816 1.6978 -437.192 -75.6039 -423.035 21.8474 51.7383 -298.836 843.215
2400 2 -19.4234 -68.6429 -18.5015 361.745 -523.613 -275.128 -110.266 511.301 -26.7109 -271.647 1203.54
4901 2 -20.8765 -68.4183 -15.1297 -9.13291 -546.017 -410.625 -75.9824 196.651 -144.727 -282.123 655.789
4912 1 -19.4049 -68.247 -14.5987 347.081 796.633 1229.35 238.86 11.9756 -6.78883 -750.888 869.252
2316 2 -21.8307 -68.3898 -17.6844 -596.629 -527.517 -294.913 -4.06036 -120.637 -153.804 -268.458 435.469
2494 2 -21.9607 -68.3348 -20.315 -106.962 -589.638 -181.085 -99.375 624.34 -213.78 -261.463 1240.49
2410 2 -23.5841 -67.8857 -15.7193 215.5 -518.695 -555.913 -403.282 -252.535 -22.0515 -270.955 1117.34
2486 1 -20.9827 -68.1289 -19.0304 1356.46 816.15 918.537 56.7831 30.6446 -84.1274 -781.121 529.926
2402 1 -22.0285 -67.9236 -16.1858 645.565 1021.33 1089.08 145.94 288.803 183.823 -785.001 765.988
2416 1 -24.9655 -67.5128 -14.9008 374.286 1113.1 1247.01 -166.922 -283.587 157.501 -765.538 1030.53
4985 2 -20.5732 -66.5631 -19.2337 -609.808 -202.17 -571.707 85.4208 -93.008 -134.628 -266.338 504.286
2407 2 -23.6632 -66.6381 -20.0482 -510.543 -595.974 -299.545 -41.2684 -120.922 82.1298 -264.224 372.902
2408 2 -21.8153 -66.2877 -16.3237 -488.825 -278.802 -698.835 -262.741 -14.2327 -63.8943 -257.185 593.526
4900 1 -17.9824 -68.4889 -17.7399 1022.1 800.824 1151.22 231.348 -193.873 370.34 -755.981 882.604
4896 2 -16.1674 -71.9142 -17.9774 -270.819 -43.5415 -509 40.4871 72.9529 27.4036 -167.324 430.877
7392 2 -12.0025 -71.5465 -15.248 378.248 -530.143 -914.48 -71.891 86.1589 2.91132 -270.171 1166.11
4982 1 -15.8544 -70.7099 -17.1002 705.797 532.174 1536.85 383.131 -14.2668 -42.6858 -811.751 1145.22
7478 1 -10.6411 -70.6864 -15.266 556.388 287.215 1903.54 -69.5486 -244.887 -34.2349 -720.112 1564.55
4812 2 -16.5716 -70.6546 -15.5976 -463.981 -370.128 -710.092 -215.676 -169.975 -57.6989 -265.712 573.313
7396 1 -13.2152 -70.5207 -15.5111 260.38 370.922 1956.55 89.1064 -169.798 -59.1275 -743.377 1680.03
7481 2 -14.3041 -70.4112 -16.6205 -87.0444 -167.514 -839.696 -140.557 324.897 -91.4152 -280.909 955.723
4990 2 -16.7108 -69.4376 -17.742 11.0569 -589.802 -545.151 -293.35 240.795 -214.524 -269.971 952.033
7486 2 -11.8473 -69.4716 -15.8935 64.0143 -244.552 -1212.71 -195.197 5.67202 -72.3076 -293.917 1208.87
4898 1 -17.155 -69.4283 -14.8676 452.419 744.239 1190.62 347.601 185.537 -14.2586 -732.003 938.635
7397 2 -15.9097 -68.5034 -14.4146 128.093 -512.183 -512.272 292.212 215.161 -14.6883 -291.073 897.61
7394 1 -11.845 -67.8002 -15.6979 683.223 305.071 1324.56 68.1472 -206.465 443.811 -765.914 1236.75
7402 2 -13.1469 -67.6599 -14.7313 264.652 -497.401 -615.957 148.901 -229.309 -49.2928 -274.926 957.434
7400 2 -12.0684 -67.0882 -17.0662 -498.72 -309.377 -606.202 -4.90859 62.6207 -282.693 -276.4 565.099
4903 2 -17.4577 -66.9649 -17.9154 -501.89 -392.596 -591.633 206.63 -42.912 -183.602 -271.2 514.344
7401 2 -13.665 -66.0009 -18.9975 -390.672 -561.782 -254.89 72.3414 395.093 -176.838 -267.668 805.457
7399 2 -13.8431 -69.9021 -14.1469 -444.23 31.1436 -506.345 -293.815 -263.755 357.371 -261.63 1053.66
5131 2 -14.6778 -56.4463 1.31862 -564.888 -495.665 -492.711 48.7569 -20.8723 211.366 -244.36 384.019
7395 1 -12.3503 -65.8546 -18.0679 714.071 880.924 916.065 -67.8142 -10.9147 452.792 -787.862 814.957
2500 1 -19.7305 -62.747 -20.9038 671.377 867.999 702.958 -149.737 74.4858 -60.1642 -781.277 358.072
2401 1 -24.4998 -65.5897 -19.1472 744.541 1163.31 668.761 -3.33405 142.58 167.076 -801.572 598.002
2409 2 -23.5526 -65.1951 -17.9063 -490.185 -629.703 -509.127 10.3063 -17.5714 -87.7998 -264.146 203.845
2403 1 -22.3148 -64.8842 -16.9512 685.579 693.967 779.095 -76.7877 270.428 -38.5697 -799.889 499.576
4897 1 -20.1821 -64.9959 -18.9984 543.435 813.611 891.821 10.3896 176.284 400.686 -785.157 821.853
4905 2 -18.655 -64.933 -18.5827 -535.269 -634.01 -747.172 108.593 -129.446 -71.7055 -269.199 367.151
2406 2 -21.0957 -64.4946 -17.8141 -647.663 -653.22 -659.841 -111.108 59.1875 77.4484 -270.668 256.224
2507 2 -20.3317 -64.1155 -20.3021 -622.676 -482.946 -494.802 61.5548 -65.8501 -92.5668 -270.676 260.941
11 2 -24.7026 -64.2789 -20.0402 -451.388 -574.532 -498.988 0.878496 -101.027 -54.8483 -269.856 226.309
2412 2 -22.7049 -63.7817 -15.8851 -526.823 -369.577 -584.745 -10.0652 -79.312 68.5022 -262.203 265.41
2506 2 -18.3053 -62.9364 -15.2806 -379.256 -563.919 -656.142 44.1557 -59.7779 -60.8241 -260.935 295.472
2501 2 -20.9029 -62.3712 -14.78 -605.851 -455.292 -636.095 -151.548 -22.1871 34.8099 -264.116 319.607
2 1 -22.4085 -62.3437 -15.2008 653.436 666.538 934.428 108.342 133.788 79.604 -811.527 428.215
7 2 -23.971 -61.8047 -20.1738 -545.298 -599.944 -634 90.1411 145.919 22.7346 -256.227 309.533
2503 2 -19.8715 -61.6188 -19.8351 -473.882 -483.813 -468.69 -37.7394 -116.418 32.9245 -275.666 219.913
8 2 -22.7189 -61.259 -16.2769 -544.006 -589.394 -526.436 -10.6595 -67.176 68.1725 -265.37 176.033
9 2 -23.0507 -59.9239 -18.5453 -122.396 -474.909 -231.825 -79.7772 264.25 -36.8214 -258.371 574.727
2497 1 -19.5488 -60.4664 -18.7526 769.422 690.082 1044.48 50.7458 175.93 -20.5663 -807.497 453.458
6 2 -20.5963 -60.4252 -17.5573 -297.561 -532.854 -544.106 -42.5854 -105.099 91.2673 -264.219 348.861
1 1 -24.233 -60.3961 -19.6079 1070.89 553.387 1063.88 199.126 76.245 -6.3372 -816.492 633.046
3 1 -22.1265 -60.0997 -17.1971 1022.67 850.512 824.306 52.9036 231.808 -141.484 -811.15 514.288
107 2 -24.3866 -59.3644 -20.8282 -547.688 -520.242 -542.698 3.765 -34.5761 -101.616 -253.247 187.743
2505 2 -18.008 -60.6559 -18.2552 -53.6696 -503.49 -527.559 91.481 86.8994 106.36 -259.955 543.546
2512 1 -19.5056 -62.8853 -14.2197 777.49 798.495 1028.48 166.773 71.6728 -55.3522 -818.487 407.685
2603 2 -19.5928 -59.0544 -19.4484 -603.469 -389.296 -650.969 41.2988 -19.9945 -16.9511 -257.319 255.885
10 2 -23.3519 -62.2 -13.9124 -461.106 -638.492 -519.659 -93.4156 -158.751 67.8694 -250.87 374.315
7529 2 -10.8496 -63.363 6.86493 -256.476 -781.797 -568.761 -57.7929 45.9355 59.8093 -221.35 486.329
7398 2 -11.1852 -65.8525 -19.1642 -440.355 -652.947 -361.068 -174.885 -181.839 -70.469 -266.89 523.627
7393 1 -14.8178 -65.3952 -19.9746 617.923 918.952 972.809 -11.2593 115.963 360.087 -773.762 734.466
4899 1 -17.2678 -65.3994 -18.0418 469.581 598.98 920.718 -61.5178 -8.19307 193.018 -797.321 534.055
4902 2 -16.0045 -65.1209 -18.971 -451.777 -559.439 -585.995 31.1924 -81.6006 -151.794 -271.985 327.375
4908 2 -17.0687 -64.7298 -16.6235 -517.018 -384.833 -572.658 50.6497 0.8034 27.5754 -258.831 194.687
7404 2 -12.4506 -64.5555 -17.1164 -458.743 -300.628 -451.91 1.33282 -81.2494 28.717 -276.973 215.059
5003 2 -14.1686 -64.06 -20.5803 -379.79 -591.647 -691.621 119.267 -102.431 -54.6448 -278.038 398.958
4997 2 -15.7971 -63.3951 -14.6954 -462.405 -536.017 -549.823 4.82935 96.6183 4.51396 -253.331 186.446
5002 2 -13.3058 -63.4186 -14.8288 -592.552 -486.878 -319.193 2.83331 -120.963 54.5139 -259.482 331.422
7493 2 -10.7322 -63.7216 -15.3612 -114.647 -492.471 -555.31 73.3272 193.578 26.8518 -254.461 548.774
4994 1 -12.2331 -63.4214 -16.0387 988.133 616.636 1104.9 -192.689 37.0418 -47.8892 -806.06 563.388
2498 1 -16.8915 -63.3066 -15.8419 651.57 883.243 935.209 9.38788 63.0982 1.59191 -814.197 283.951
2504 2 -16.4271 -62.2482 -16.9614 -498.718 -168.661 -470.851 43.9737 -63.3726 -163.303 -257.026 445.387
5000 2 -12.1613 -61.9256 -16.5888 -481.09 -134.903 -686.285 137.223 52.4407 18.8592 -262.568 546.621
4999 2 -13.4499 -61.5885 -20.0121 -507.335 -357.814 -578.957 -55.9286 -78.3631 75.6007 -268.486 288.354
2499 1 -16.5138 -60.7049 -17.5988 744.882 906.753 928.93 -83.1851 229.997 -142.474 -810.976 520.226
2502 2 -15.3616 -60.4637 -18.615 -543.136 -494.795 -753.983 31.643 25.5144 -0.469719 -266.495 248.884
4995 1 -11.9199 -60.3416 -16.8554 896.321 699.008 1061.45 -79.8563 65.5842 -251.24 -804.247 565.847
4993 1 -13.9528 -60.2339 -19.2962 794.757 669.983 912.027 -155.602 -14.6325 -106.011 -804.454 388.519
5001 2 -12.8849 -59.9578 -18.1586 -352.577 -557.749 -438.238 -10.5715 210.346 -79.5293 -256.277 428.84
2508 2 -16.3588 -59.6199 -16.4734 -592.927 -399.829 -767.459 29.2342 62.2933 9.63589 -256.105 340.491
5004 2 -12.3704 -59.4682 -15.6313 -561.003 -343.175 -664.147 3.6329 -23.7472 77.8382 -259.88 316.959
5099 2 -14.0501 -59.0604 -20.3805 -494.78 -358.478 -587.044 -40.2018 56.7468 -55.196 -263.825 251.626
4998 2 -10.4388 -60.1252 -17.3956 -343.462 -473.887 -434.786 -39.4336 -256.761 75.42 -268.373 482.647
12 2 -22.1808 -58.7301 -16.3787 -684.211 -333.151 -309.141 -92.8412 -149.435 220.224 -250.208 608.766
2602 2 -17.9697 -58.748 -14.6725 -197.103 -516.52 -420.596 21.95 -248.241 37.3865 -241.974 520.672
2597 2 -20.4864 -57.861 -14.7571 -459.251 -459.545 -768.219 -86.1156 -122.758 5.6842 -255.137 403.638
98 1 -22.0696 -57.7878 -15.0254 883.13 698.934 1389.5 103.393 -169.643 -41.2032 -818.083 712.119
2596 1 -19.6676 -57.6939 -20.3 1112.06 795.663 1037.59 -49.5213 -44.1301 40.7129 -820.266 316.642
103 2 -24.5962 -56.9783 -19.9665 -565.855 -492.048 -548.49 -82.3175 35.3284 32.848 -256.435 178.261
104 2 -22.5967 -56.3594 -15.4222 -588.316 -368.12 -689.24 -63.7606 209.715 -79.6138 -253.282 494.012
2599 2 -20.2668 -56.5042 -19.3437 -534.552 -161.625 -371.179 -54.6729 -68.0679 261.645 -245.203 577.131
105 2 -23.5449 -55.6837 -17.8482 -771.865 -626.577 -489.04 -40.5444 -24.0932 -19.9835 -247.577 260.535
2601 2 -18.3906 -55.7439 -17.785 -102.044 -491.829 -581.453 -51.7237 33.9259 114.172 -257.601 495.463
2593 1 -19.9109 -55.3716 -18.1932 984.815 1027.28 1041.44 91.3212 65.8705 -62.5916 -827.06 228.897
97 1 -24.66 -55.7193 -18.9843 877.518 822.403 803.109 129.403 27.392 -93.1598 -827.943 288.09
102 2 -21.1442 -55.4616 -17.1659 -323.41 -593.37 -771.453 -69.3863 -101.519 49.3654 -244.796 453.145
99 1 -22.6422 -55.3062 -16.6265 748.085 686.452 961.656 -65.5434 -68.8009 -69.3031 -835.143 322.601
203 2 -24.4857 -54.4116 -19.8852 -482.041 -502.608 -663.709 22.0268 -74.3678 82.9731 -261.585 261.516
2699 2 -19.9208 -53.9029 -18.8669 -587.935 -317.188 -497.102 -10.6163 56.7245 -134.971 -251.665 348.718
108 2 -22.9631 -53.8142 -16.2369 -445.786 -343.966 -589.835 57.0928 11.6445 86.3122 -251.292 279.856
196 1 -24.4058 -53.1196 -20.7473 584.043 742.694 1177.13 76.0108 26.1822 100.399 -818.596 576.592
2704 1 -19.4745 -52.8147 -14.4743 793.754 720.876 852.116 168.402 2.73998 46.7151 -836.362 323.446
2692 1 -19.6482 -52.799 -19.995 1015 939.588 1034.44 -107.675 61.2854 29.9553 -827.047 237.218
2693 2 -20.9638 -52.6585 -14.9896 -475.105 -489.071 -567.701 -32.3735 55.8637 54.2367 -256.061 169.727
194 1 -22.4682 -52.4344 -15.4796 848.151 697.988 1207.62 61.7879 5.12242 124.131 -827.259 513.322
2698 2 -18.4195 -52.5196 -15.6515 -241.089 -581.551 -556.143 -8.43172 -252.718 37.9821 -240.55 551.407
202 2 -23.4945 -52.2155 -14.2096 -209.324 -591.493 -413.046 -100.694 -209.645 113.981 -245.387 557.625
2782 2 -18.1535 -53.1648 -20.5694 -255.382 -465.29 -568.602 -81.7049 -120.034 110.082 -252.685 419.556
5093 2 -15.4444 -58.3442 -14.4162 -497.582 -646.331 -450.711 -12.4842 45.5164 55.7549 -249.271 217.494
2594 1 -16.6118 -58.4052 -15.4926 918.624 856.608 836.048 28.6685 -43.0633 -295.143 -834.708 524.31
5090 1 -12.009 -58.1246 -14.8281 981.229 783.083 906.08 67.6007 7.69745 -203.723 -815.241 410.385
5188 1 -14.132 -52.9394 -20.9245 592.882 692.817 1145.49 43.9102 27.2525 -36.4112 -821.062 521.655
2600 2 -16.7261 -57.0219 -16.2839 -500.813 -5.33008 -431.966 15.7286 -98.1286 -126.405 -257.849 541.937
5096 2 -12.3562 -56.814 -15.6264 -564.174 -526.382 -551.277 -11.3296 15.161 147.008 -266.328 258.874
5095 2 -13.7896 -56.571 -19.9574 -569.571 -675.358 -775.447 -60.7822 -0.224377 -122.497 -263.401 296.474
2598 2 -15.8366 -55.7244 -18.5175 -342.58 -445.838 -326.033 1.63907 -338.51 -51.8641 -254.294 603.73
2595 1 -16.8672 -55.6621 -17.2404 856.399 1041.99 1364.13 190.894 69.3673 -115.758 -816.506 601.634
5097 2 -13.4876 -55.5087 -17.6227 -440.934 -568.308 -552.939 -75.4874 90.6553 -40.8991 -251.646 247.53
5091 1 -12.2814 -55.5454 -16.5428 936.048 470.79 810.979 -28.2876 0.0937288 -105.04 -820.069 457.623
5094 2 -10.8893 -55.4794 -17.3197 -419.108 -466.869 -647.485 69.998 22.2558 10.9883 -262.555 245.106
5089 1 -14.3056 -55.4501 -18.9901 1008.29 810.956 770.928 113.87 -81.2247 -181.941 -815.055 454.357
2604 2 -16.5665 -54.2006 -16.5751 -420.006 62.7963 -626.704 7.61708 37.7636 93.182 -257.708 637.273
5100 2 -12.4006 -54.1951 -15.7694 -591.338 -498.279 -681.911 14.2301 13.5335 -13.4522 -255.142 164.292
5195 2 -14.0661 -54.0219 -19.7262 -491.534 -284.278 -450.949 84.4239 -8.09794 -130.464 -256.161 329.897
2690 1 -16.8605 -52.6295 -16.2114 1052.12 871.949 1027.78 -108.696 -68.0807 109.051 -824.907 337.187
5189 2 -15.9892 -52.3271 -14.8916 -411.298 -598.642 -255.515 -78.9217 179.3 -75.5816 -249.024 469.915
5186 1 -12.1218 -52.6752 -15.3423 828.865 857.546 1026.36 9.57123 -29.0773 -39.0683 -824.453 203.841
7685 2 -10.6563 -52.5455 -14.7479 -330.807 -521.532 -592.932 -41.3751 -12.8692 109.394 -257.939 310.846
5194 2 -13.381 -52.2219 -14.4055 -148.783 -557.079 -545.713 -14.9786 -89.2242 66.6283 -247.763 447.289
7589 2 -10.4085 -58.2087 -14.57 -252.057 -636.24 -618.077 -46.2725 -12.3687 142.644 -253.981 457.026
2440 1 -25.5997 -67.6264 1.23176 660.575 977.824 1370.58 -154.567 161.688 -31.0446 -773.262 729.725
4906 2 -18.4282 -69.3636 -13.9465 2.29154 -342.697 -1009.47 -241.714 -54.0811 33.5852 -265.356 990.489
4915 2 -19.2605 -66.9075 -13.8064 -512.974 -291.465 -316.613 -47.9085 -71.4468 295.511 -276.686 572.982
2422 2 -23.6946 -67.7335 -7.87932 -66.5145 -377.414 -763.067 -62.6113 -143.374 -80.0755 -254.991 676.721
2414 1 -22.1218 -67.6943 -8.01232 515.485 967.797 868.503 -78.5147 -188.32 72.6891 -823.743 557.021
2328 2 -21.7535 -67.2972 -9.54616 -596.289 -515.24 -198.199 -2.70283 -127.253 -364.475 -244.684 761.517
2419 2 -24.7634 -66.5287 -13.6535 -393.582 -346.524 72.1983 40.0404 73.0948 295.157 -271.062 692.415
4913 2 -21.1434 -68.6806 -7.27792 -182.021 -1064.83 -340.978 259.15 201.071 19.0182 -228.832 994.052
2420 2 -21.3656 -66.637 -7.11201 -55.9512 -1153.32 -551.62 -94.4455 89.6628 -110.448 -223.024 996.716
4918 2 -18.622 -67.5642 -7.17943 20.5389 -356.519 -735.174 35.8011 -234.763 37.2403 -264.031 775.676
2428 1 -25.185 -67.7402 -7.18217 1091.69 1175.83 746.971 12.6184 -9.92482 -58.3689 -810.336 407.316
7408 1 -14.4185 -68.3095 -13.8368 834.436 1089.38 1212.71 41.1783 37.9299 -140.238 -765.224 424.328
9893 2 -10.3931 -67.6653 -15.1176 -60.7164 -279.743 -606.956 -396.04 164.818 -231.559 -265.441 969.333
7409 2 -16.0541 -68.4869 -7.82782 219.638 -757.073 -346.804 7.60826 156.506 -1.11739 -232.573 891.757
7414 2 -13.3731 -67.6175 -8.01234 196.407 -352.394 -791.247 88.174 -155.919 -13.7902 -258.929 911.836
4910 1 -17.2791 -67.3843 -8.00773 789.336 1181.15 798.798 -4.60203 167.052 174.191 -811.86 569.833
7406 1 -11.7824 -67.428 -8.07178 606.715 1085.38 1129.72 -2.61042 -60.6536 87.6493 -814.214 535.174
7411 2 -14.3793 -67.4265 -12.4762 -576.401 -225.024 -356.194 -37.8407 51.716 338.098 -263.753 670.694
7320 2 -11.442 -67.0864 -9.61018 -639.452 -437.278 -336.253 25.1632 -129.151 -68.7281 -253.683 370.965
4824 2 -17.7207 -66.9373 -9.43879 -654.694 -362.258 -413.644 -23.0517 -95.9913 -196.153 -246.904 466.688
4916 2 -16.0355 -66.362 -7.58235 240.509 -805.115 -522.979 -103.841 -43.589 -114.321 -228.362 977.332
9905 2 -10.8692 -68.4791 -7.24055 -140.914 -997.138 -336.033 14.8976 314.054 -36.6718 -220.034 951.165
7412 2 -10.9177 -66.4128 -7.13639 -41.5819 -1219.04 -478.06 31.6378 217.866 68.5085 -223.083 1105.65
7420 1 -14.8183 -67.5387 -7.25373 862.989 1308.29 1261.5 -158.095 201.228 60.8977 -807.035 622.278
2415 1 -21.8015 -66.0723 -10.6174 978.069 1248.76 928.645 14.1427 213.62 131.254 -822.349 527.518
2418 2 -20.6715 -66.1029 -11.7782 -671.8 -514.322 -213.915 -51.1118 -299.603 14.1286 -254.652 663.38
2421 2 -23.1729 -66.0646 -11.476 -361.714 -580.683 -248.001 33.2893 249.754 44.0749 -256.798 531.094
2413 1 -24.5364 -65.659 -12.2242 745.692 1180.09 925.913 -10.0653 166.14 3.93328 -821.562 475.447
4909 1 -19.4459 -65.6931 -12.7072 842.723 985.918 883.864 93.2019 100.552 -138.302 -811.733 360.667
4917 2 -18.2656 -65.5199 -11.6532 -546.39 -577.912 -205.917 -42.8979 158.171 142.179 -255.487 518.525
2424 2 -21.6307 -64.7992 -9.53731 -472.512 -439.858 -41.23 63.2888 12.2377 385.164 -248.108 794.045
2519 2 -19.6402 -64.2944 -13.5133 -512.242 -382.777 -460.458 -97.1442 -42.5957 -129.855 -261.077 311.576
23 2 -24.4568 -64.0586 -12.6276 -656.362 -193.964 -658.768 -114.836 -23.899 112.451 -243.945 542.348
22 2 -23.3392 -64.0211 -7.65839 -329.759 -595.185 -392.441 76.1986 -232.883 -28.2004 -239.81 490.154
14 1 -21.8233 -63.7876 -8.28122 1147.78 1146.79 903.854 32.8884 8.73044 -115.87 -849.906 320.951
16 1 -24.7635 -62.6666 -13.3205 1024.64 680.156 594.616 18.6883 104.222 -203.356 -832.474 559.596
20 2 -21.8151 -62.2966 -8.96162 -598.474 -256.652 -435.951 -30.0049 -52.9366 -156.556 -241.311 415.137
2515 2 -19.0611 -61.848 -13.0332 -582.217 -417.482 -255.673 -35.8263 0.181563 304.841 -242.869 602.171
21 2 -23.5221 -61.1902 -10.6434 -8.87422 -479.618 -443.84 -176.776 98.9663 40.605 -251.731 578.027
18 2 -20.8791 -61.3042 -11.2036 -318.25 -543.452 -499.044 83.9761 -111.239 -30.6679 -254.479 322.16
15 1 -21.987 -61.1527 -10.0829 919.825 1057.7 1016.18 77.7879 163.324 -37.7363 -838.78 342.722
2517 2 -18.3402 -60.6521 -10.7841 -488.632 -612.407 -539.88 -67.8503 0.986431 -44.7418 -252.809 177.265
2509 1 -19.5078 -60.7729 -11.8763 1066.41 1122.03 882.366 -10.3015 -46.0024 -101.418 -828.476 291.079
13 1 -24.9506 -60.5935 -11.2271 1221.93 808.766 865.754 -14.4109 196.643 -128.662 -826.136 562.759
24 2 -21.7884 -59.6289 -9.50837 -559.586 -161.944 -512.315 31.3337 -25.2049 218.216 -243.698 537.832
2615 2 -19.6601 -59.3596 -12.7007 -558.42 -146.983 -271.655 71.5632 10.31 -300.353 -251.613 647.957
119 2 -24.7347 -59.2055 -11.9384 -590.67 -560.569 -454.615 -73.175 -57.7253 -101.044 -256.004 268.35
19 2 -25.4112 -61.5563 -12.4319 -652.741 -599.767 -515.139 -11.5569 23.4401 25.6048 -248.743 135.894
131 2 -24.4836 -59.625 -7.12219 -601.416 -260.685 -721.992 8.9539 -95.936 -74.2875 -242.645 464.896
2513 2 -20.7537 -63.7412 -7.12544 -570.905 -697.461 -236.558 24.8362 124.581 121.201 -241.298 512.443
2686 2 -18.1607 -57.4 -20.8636 -151.248 -510.435 -601.445 6.27382 -159.45 -29.989 -258.195 499.076
5008 1 -14.4819 -63.4303 -13.7692 836.421 1074.04 913.826 -13.8279 14.9627 -80.4343 -827.654 254.395
4914 2 -15.7822 -65.9103 -10.8963 -259.519 -603.344 -468.946 -59.4986 -147.611 109.457 -253.73 449.443
7405 1 -14.4384 -65.9986 -11.7656 732.211 992.74 830.759 -60.0141 -45.7527 -390.691 -828.328 725.89
4911 1 -17.2823 -65.6181 -10.3615 1106.73 1141.3 709.772 38.3822 80.7832 -169.572 -824.628 531.748
7413 2 -13.0877 -65.7559 -11.025 -297.252 -667.865 -513.922 91.7334 91.787 158.903 -250.038 479.863
7407 1 -11.5626 -65.6972 -10.3816 1032.8 1040.76 799.085 57.9747 101.922 -124.277 -820.827 379.643
5015 2 -14.5493 -64.8172 -12.8979 -547.089 -99.4436 -464.412 85.6905 -73.371 -92.6926 -251.179 483.907
4920 2 -17.412 -64.3789 -9.40871 -548.474 -437.784 -269.816 54.6117 0.272066 274.334 -251.509 542.017
7416 2 -11.2506 -64.4698 -9.43862 -564.313 -339.619 -580.076 91.3705 96.761 239.979 -249.631 529.322
5014 2 -13.127 -63.8981 -7.84881 -541.871 -477.207 -564.859 134.578 -183.031 80.9061 -241.946 425.052
2510 1 -17.1837 -63.401 -8.06434 1184.57 1058.51 1006.91 -25.6625 314.107 -135.752 -835.614 615.07
5009 2 -15.674 -63.4204 -7.39949 -103.987 -729.123 -394.143 1.75283 191.573 174.432 -238.534 703.554
5006 1 -11.6511 -63.4089 -8.25151 818.745 1102.47 944.558 -84.2279 -14.2698 -260.705 -839.075 535.191
5012 2 -11.6059 -61.9685 -8.98658 -496.573 -257.847 -289.233 87.8093 -119.665 -219.752 -252.587 511.318
5011 2 -14.5067 -62.1239 -12.8062 -546.462 -102.816 -408.321 -32.7692 -57.5986 283.276 -246.286 639.163
2516 2 -17.3439 -61.9042 -8.63261 -643.032 -329.044 -356.392 79.1522 -39.3332 -121.814 -250.207 398.374
2514 2 -15.7976 -61.3278 -10.6364 -227.078 -544.235 -458.195 66.1673 -204.298 80.5998 -242.955 488.405
5013 2 -13.1738 -61.1276 -10.8409 -650.224 -613.378 -680.487 -75.1508 30.9719 48.0165 -243.997 173.569
5010 2 -10.7094 -61.1248 -11.5115 -562.2 -588.932 -215.139 -34.1102 -177.318 34.8598 -249.128 481.565
5005 1 -14.5223 -60.9796 -11.6079 819.978 899.436 1079.21 -10.3758 -85.0946 -43.7445 -841.768 284.086
2511 1 -17.1225 -60.8555 -9.83189 876.934 1104.39 907.03 -98.34 -60.4432 -68.6606 -839.358 316.087
5007 1 -11.7133 -60.9249 -10.2455 782.278 939.635 1224.69 23.2934 -97.3777 -258.526 -834.269 617.62
5016 2 -11.6369 -59.3656 -9.85835 -581.065 -336.245 -654.519 -29.0631 20.4817 75.5023 -247.992 322.815
5111 2 -14.7451 -59.5371 -12.2095 -618.285 -244.257 -558.606 -29.3263 11.5386 -16.0246 -252.41 353.393
2520 2 -16.8931 -59.3051 -9.27897 -566.091 -167.822 -502.197 -64.1551 -194.029 159.87 -239.333 582.424
106 2 -22.9253 -58.2987 -13.7022 -140.687 -434.715 -180.227 41.5835 -381.607 73.3449 -254.43 731.156
112 1 -24.4504 -58.1361 -13.0718 1084.44 917.064 938.002 -76.3806 37.6009 22.5726 -829.527 219.592
2608 1 -19.3005 -58.2186 -13.8107 808.564 844.962 1214.27 -17.2667 -143.371 -141.181 -829.92 522.986
124 1 -24.5118 -58.0543 -7.57196 701.886 1112.26 926.253 -45.4885 197.434 -77.3562 -846.452 517.469
110 1 -21.8587 -58.1 -8.955 1007 1079.75 1124.15 -16.9328 79.6296 -127.747 -838.296 281.665
2609 2 -20.9382 -57.9569 -7.6637 -276.071 -683.552 -262.564 -13.7138 230.679 47.3001 -245.742 581.929
118 2 -23.444 -57.8244 -8.65858 -354.454 -605.863 -722.721 -4.6094 82.9315 70.9789 -246.221 376.898
2614 2 -18.3529 -57.5538 -7.77734 -403.14 -480.434 -412.075 31.7178 -157.262 61.6728 -240.3 306.572
116 2 -21.5327 -57.0799 -10.2192 -579.46 -396.414 -209.413 -61.8281 2.17343 -318.448 -241.01 646.85
115 2 -24.7212 -56.6074 -12.5663 -548.648 -124.92 -671.09 -231.251 -134.984 83.697 -245.027 694.643
2611 2 -18.8483 -56.823 -13.1837 -537.347 -180.209 -677.339 -21.1822 -80.625 75.6395 -247.223 484.926
111 1 -21.682 -55.5839 -10.7977 955.158 919.386 1089.27 -27.6285 157.32 -135.474 -842.335 394.537
2605 1 -19.2205 -55.2905 -12.7342 966.834 908.606 963.441 -59.5608 -109.822 -127.58 -824.214 314.419
114 2 -20.6942 -55.3481 -12.0733 -360.927 -456.533 -338.036 86.9889 -230.568 51.9832 -252.824 449.606
109 1 -24.7035 -55.1494 -11.8786 983.144 867.674 1270.55 65.336 57.5762 -139.405 -835.422 458.452
117 2 -23.1711 -55.2074 -11.2556 -170.014 -497.305 -574.568 -186.133 131.587 -12.5962 -244.402 542.895
2711 2 -19.1887 -54.2459 -13.9861 -553.657 -595.191 -479.212 -18.8102 -35.4809 61.2492 -255.582 162.64
120 2 -21.268 -54.703 -9.51806 -493.369 -348.998 -285.157 -81.0172 -125.77 260.335 -236.933 551.91
215 2 -24.8457 -53.913 -12.9233 -566.089 -452.625 -447.799 -59.5198 18.9033 -25.3618 -253.212 164.543
214 2 -23.2517 -53.4769 -8.14729 -470.102 -576.249 -468.83 -89.9934 -146.563 137.177 -249.943 395.721
206 1 -21.7579 -53.3507 -8.61437 935.618 1163.92 858.475 -90.3045 43.9947 -101.653 -840.146 370.075
208 1 -24.9606 -52.486 -13.5641 1069.94 816.538 699.633 21.5425 33.1473 -65.9018 -836.227 353.863
2705 2 -20.8192 -53.339 -7.32116 -374.829 -633.067 -359.146 -2.96319 181.948 47.7036 -241.116 420.894
212 2 -21.5648 -52.0667 -9.55472 -667.158 -254.298 -435.244 67.2838 -54.2243 -29.9801 -249.248 391.903
7697 2 -10.453 -53.3939 -7.51468 -478.711 -565.675 -276.225 29.0286 124.884 46.4046 -251.723 349.212
2613 2 -18.161 -54.8866 -11.6514 -402.751 -634.778 -356.32 -70.4934 135.013 9.74231 -254.569 369.654
5106 2 -10.3273 -55.2108 -12.1181 -219.014 -584.556 -429.641 -79.4014 -115.876 86.8491 -256.72 427.569
5098 2 -12.9619 -58.2096 -13.5169 -210.47 -642.289 -516.997 79.8239 -181.384 -30.1815 -243.746 518.277
5104 1 -14.5383 -58.2014 -13.0977 1052.5 949.896 925.131 -25.2775 86.4041 -80.5758 -832.451 239.737
7601 2 -10.8131 -57.7265 -7.98615 -446.489 -566.263 -215.272 -50.8253 160.241 54.0518 -249.283 434.795
2606 1 -17.0863 -57.8221 -8.6795 848.586 1081.51 943.835 -254.025 75.9428 -23.8156 -855.921 503.718
5116 1 -14.2152 -57.9229 -7.43306 891.24 891.424 916.882 -109.809 142.982 -139.216 -836.607 395.35
5102 1 -11.7921 -57.8958 -9.28751 996.407 760.525 1073.61 4.11669 155.644 -110.066 -832.811 434.604
5110 2 -13.2918 -57.7623 -8.72738 -571.969 -566.84 -397.662 44.1424 -87.5607 92.0299 -247.507 289.43
5105 2 -15.718 -57.5414 -7.93017 -405.943 -673.5 -598.145 85.6673 74.4509 -9.6924 -236.032 309.888
5108 2 -11.5606 -56.8122 -10.4559 -553.872 -262 -327.455 -0.885478 40.729 -140.215 -251.367 366.51
5107 2 -14.7319 -56.7166 -12.5154 -590.271 -106.727 -577.518 116.71 25.3903 46.5735 -252.02 526.417
2612 2 -17.268 -56.6831 -9.84541 -557.249 -180.588 -492.619 -2.52803 55.8773 -283.333 -232.675 609.858
5103 1 -11.5219 -55.2694 -11.0165 1070.96 1141.61 820.902 -17.4273 -7.81306 -135.387 -822.269 375.861
5101 1 -14.5491 -55.1496 -12.1163 823.05 889.867 993.173 63.3711 116.129 -4.3111 -829.618 273.131
5109 2 -13.0341 -54.9335 -11.5569 -52.6978 -544.99 -463.774 -34.0808 110.826 52.7805 -252.784 507.597
2607 1 -17.1022 -55.1502 -10.4327 931.194 1123.07 857.554 107.123 90.8864 -355.704 -840.387 703.67
2610 2 -15.6448 -54.8374 -11.0204 -440.705 -566.882 -735.885 68.5081 -6.12968 10.3258 -244.595 283.407
5112 2 -11.2713 -54.2315 -9.83004 -647.215 -416.176 -470.714 -5.8023 -66.302 126.439 -255.861 324.041
2616 2 -17.1695 -54.265 -9.14848 -736.885 -723.612 -515.958 -8.97076 85.2607 23.3323 -240.72 264.075
5207 2 -14.8041 -54.1438 -13.3126 -534.609 -398.814 -617.117 -40.7812 31.6735 -7.01698 -257.127 211.185
5206 2 -12.9325 -53.1619 -8.05054 -223.578 -545.094 -299.988 -38.0395 -283.721 74.1305 -246.037 589.037
5198 1 -11.4606 -53.1111 -8.72899 1043.24 974.751 675.509 -17.5055 -81.3143 -223.934 -835.067 534.719
5200 1 -14.8273 -52.6221 -13.7821 1086.07 1030.07 761.039 54.5601 -26.062 -125.868 -827.927 386.102
2702 1 -17.1323 -53.1833 -7.98435 857.737 1035.64 733.767 -130.68 -34.0386 -120.491 -845.544 409.063
5201 2 -15.623 -53.2201 -7.49778 -353.242 -579.954 -634.962 23.3966 -75.1393 40.6515 -249 300.72
148 1 -24.5358 -58.4005 6.9096 873.527 1249.76 794.032 -57.271 -37.7466 49.8759 -856.417 446.49
4924 1 -20.1121 -67.6339 -6.54706 1146.91 1087.41 699.584 -182.819 13.3776 -85.9153 -807.46 547.7
2431 2 -24.7521 -67.4134 -5.71928 -726.257 -446.95 -564.593 91.4874 74.9047 198.32 -245.642 467.897
4927 2 -19.9623 -67.376 -5.01395 -768.261 -314.592 -211.878 103.498 -44.9813 306.625 -249.421 763.692
2432 2 -23.0401 -66.7332 -1.11364 -605.689 -397.467 -122.884 209.47 -377.77 -208.693 -250.631 930.778
4929 2 -18.2497 -66.3076 -3.19455 -217.677 -598.743 -338.498 51.5341 238.382 73.2493 -235.267 555.257
2433 2 -23.5218 -66.3587 -3.60705 -494.241 -721.508 -413.87 -15.1299 72.0949 49.4065 -238.542 316.194
2425 1 -24.7556 -66.2543 -4.60249 1123.18 1240.27 591.345 -40.6943 27.6374 -251.374 -847.246 745.424
2430 2 -20.9577 -66.0215 -2.92324 -254.083 -572.664 -330.998 23.8273 -350.075 18.3087 -251.106 673.255
4921 1 -19.7065 -66.1815 -3.89837 1230.03 1337.76 798.503 -70.956 235.42 -178.984 -838.889 722.348
7332 2 -12.2085 -69.0775 -2.13811 -453.786 -78.3553 -431.751 31.9761 -54.0788 -41.8092 -123.374 387.616
7418 1 -12.5137 -68.2779 -0.844672 1332.68 1101.8 1482.37 -131.226 -23.0833 296.025 -935.749 653.013
7423 2 -14.3535 -67.1413 -5.75213 -625.729 -660.736 -335.693 238.066 108.708 263.304 -238.702 713.418
4928 2 -16.2861 -67.0081 -1.33506 -410.397 -460.368 -207.979 -98.3423 119.741 -214.016 -230.209 512.856
7424 2 -12.3 -66.6712 -1.12291 -583.683 -424.401 -524.899 102.31 14.5918 -241.293 -212.584 475.574
4923 1 -16.7495 -66.0642 -2.55552 1074.22 892.192 1009.1 -36.4799 228.953 -93.5621 -871.342 461.556
7426 2 -14.0993 -68.362 -0.35898 -273.17 -635.343 -705.421 6.33487 30.6099 -174.427 -206.63 505.634
4926 2 -15.7889 -66.2139 -3.8229 -630.95 -671.888 -417.432 133.734 -154.964 -38.615 -227.231 431.481
7425 2 -13.2106 -66.0301 -3.55104 -374.635 -795.891 -347.388 131.5 86.3185 121.52 -225.341 555.164
7417 1 -14.3878 -66.0702 -4.60175 1149.19 1319.72 613.554 -115.898 90.3628 -466.075 -871.306 1060.09
2427 1 -22.5108 -65.8697 -2.45313 1331.11 928.93 820.362 74.0923 158.776 -84.3223 -839.885 575.002
2518 2 -18.2858 -63.8614 -7.00857 -710.518 -422.886 -433.379 132.054 -233.629 36.8537 -250.594 547.687
35 2 -24.6551 -64.8562 -5.43789 -618.758 -248.558 -252.095 68.8597 -192.393 -159.163 -245.283 580.534
2531 2 -19.6026 -64.7815 -4.84635 -601.713 -73.6427 -123.281 107.754 -141.534 -234.897 -244.898 718.031
2436 2 -22.7897 -64.3195 -2.29263 -644.293 -221.897 -545.731 -9.11036 -48.0739 -8.49911 -249.134 392.3
28 1 -24.5635 -63.7812 -6.66144 988.653 914.916 966.412 93.4429 61.2896 -58.1725 -854.416 227.833
2524 1 -19.5227 -63.6636 -6.0345 1095.53 962.096 1068.75 -174.756 299.007 -110.989 -841.02 641.668
26 1 -22.5838 -62.702 -2.10098 1057.44 956.104 739.758 15.3352 357.74 288.969 -832.078 845.073
2536 1 -19.6664 -62.8007 -0.804725 769.524 1147.58 796.659 -92.3019 216.993 -107.317 -849.379 578.594
2530 2 -18.385 -62.6378 -1.70492 -398.683 -554.693 -675.071 119.178 16.4215 -6.91065 -249.891 318.077
2525 2 -21.0581 -62.4215 -1.48882 -194.089 -536.899 -511.694 139.334 20.4596 72.2552 -243.676 429.737
31 2 -24.3829 -62.2364 -6.2261 -675.17 -383.234 -588.005 -29.5508 -57.398 -172.115 -241.715 410.794
34 2 -23.6601 -62.1091 -1.11756 -536.085 -685.858 -593.149 -21.5104 -45.7365 38.7887 -247.368 171.227
2527 2 -19.5157 -62.1548 -5.428 -584.075 -190.53 -504.187 90.1625 -89.4025 94.7988 -248.858 452.931
32 2 -22.6012 -61.8783 -3.40589 -690.484 -622.23 -860.548 111.085 -207.185 90.2434 -243.672 485.196