ITEM: TIMESTEP
2000000
ITEM: NUMBER OF ATOMS
29952
ITEM: BOX BOUNDS pp pp pp
-2.5615833775063237e+01 3.5601128117061187e+01
-1.2793275341176772e+02 1.3791804774596648e+02
-2.1035324467156940e+01 3.4903177627851115e+01
ITEM: ATOMS id type x y z v_StrAtomXX v_StrAtomYY v_StrAtomZZ v_StrAtomXY v_StrAtomXZ v_StrAtomYZ c_PEAtom v_VMS
2400 2 -19.6505 -69.8866 -18.3682 261.138 -451.815 -288.538 -172.697 481.576 -116.935 -274.634 1115.7
4901 2 -21.0178 -69.7241 -15.0055 -83.7917 -640.634 -485.398 -112.476 147.853 -86.3085 -285.548 611.237
4904 2 -18.4635 -69.8978 -15.8654 -14.0372 -621.141 -144.753 -298.717 128.918 36.2698 -303.873 792.342
4912 1 -19.5374 -69.604 -14.5348 312.272 870.047 1177.01 230.645 3.63688 -66.1913 -745.318 865.636
2494 2 -21.9769 -69.5515 -20.2319 -127.412 -481.009 -92.4813 -176.011 437.553 -265.52 -277.444 1008.66
2316 2 -21.9587 -69.4576 -17.5066 -586.728 -622.812 -153.364 -18.9889 -110.558 -116.15 -275.778 531.947
2486 1 -21.1876 -69.2973 -18.8911 1024.91 891.248 853.696 -33.8291 -65.7542 3.21596 -769.448 201.819
2410 2 -23.6905 -69.226 -15.3407 40.6355 -470.671 -641.873 -134.083 -155.985 -104.492 -284.427 733.462
2402 1 -22.1895 -69.1237 -15.9397 521.02 958.913 1273.66 223.264 78.5506 189.703 -771.499 839.435
2416 1 -25.1608 -68.9897 -14.8357 359.481 922.06 1324.27 -314.609 76.5813 90.499 -766.451 1021.59
4900 1 -18.2014 -69.8932 -17.6174 938.845 697.513 1131.22 -13.4751 -70.3106 371.256 -757.255 755.343
4896 2 -16.1378 -73.5013 -17.6311 -345.721 -235.004 -593.849 7.07335 10.3969 -141.774 -169.428 402.581
7392 2 -11.9902 -72.8611 -15.3204 365.75 -402.79 -837.507 -152.043 127.634 28.3053 -261.322 1111.02
4982 1 -16.0885 -72.1865 -17.0013 1043.62 270.15 1351.55 163.624 64.2341 -116.332 -818.267 1031.77
7478 1 -10.6337 -71.9451 -15.2689 372.198 259.667 1749.29 196.889 -94.1275 33.3829 -728.276 1486.68
4812 2 -16.7038 -71.8688 -15.5339 -555.838 -406.583 -860.193 -89.2946 -189.672 110.654 -260.935 573.512
7396 1 -13.1838 -71.7644 -15.5846 483.749 335.661 1828.56 -8.64877 -53.328 -89.7844 -740.383 1436.16
7481 2 -14.3783 -71.7633 -16.6087 417.534 -186.01 -859.607 11.337 395.839 -78.4725 -263.239 1309
7486 2 -11.7874 -70.8152 -15.905 16.5739 -479.596 -1158.77 -175.1 -32.5835 -24.1698 -310.649 1068.35
4990 2 -17.0552 -71.0269 -17.6808 87.9975 -369.192 -817.78 -285.034 184.095 -83.7807 -264.589 990.861
4898 1 -17.2418 -70.6461 -14.7347 376.367 857.763 1295.37 243.452 -56.1898 35.9511 -736.039 908.33
7397 2 -15.9959 -69.7236 -14.4175 348.973 -566.504 -598.515 168.45 130.007 -134.575 -285.661 1028.88
7394 1 -11.8802 -69.1446 -15.6641 697.772 269.607 1047.41 52.4912 -25.1709 465.284 -737.782 1055.89
7402 2 -13.2415 -69.1058 -14.84 -146.811 -585.562 -888.663 6.1195 39.9466 81.8202 -289.607 665.088
7400 2 -12.1162 -68.39 -16.9741 -489.202 -461.555 -736.452 -70.2709 127.24 -160.44 -290.263 457.537
7399 2 -13.9192 -71.2625 -14.2309 -346.168 -270.283 -636.98 -231.369 -337.587 221.283 -268.961 872.804
4903 2 -17.5539 -68.4689 -17.756 -410.834 -204.335 -642.805 180.321 39.8485 -128.71 -277.389 544.393
6 2 -20.6374 -61.5339 -17.9474 -174.623 -540.07 -524.579 -7.51883 -197.86 -10.6975 -267.349 496.073
7408 1 -14.3865 -69.7175 -13.9469 606.196 917.379 1070.94 -44.8642 310.411 -104.606 -759.895 704.367
4985 2 -20.7723 -67.7071 -19.0621 -475.976 -428.011 -620.302 121.342 -13.6883 -80.9343 -272.791 307.308
2407 2 -23.7749 -67.7283 -20.2155 -491.273 -849.193 -586.919 -82.4442 -153.108 -192.215 -268.497 551.886
2408 2 -21.7698 -67.5155 -15.9806 -353.062 17.6822 -680.022 -50.9506 -124.986 -192.438 -268.361 728.919
2401 1 -24.4365 -66.882 -19.082 511.871 1147.99 808.365 56.1843 315.227 -67.0267 -789.407 790.568
2409 2 -23.4632 -66.8709 -17.7566 -358.065 -624.304 -381.672 59.9762 117.743 -57.5651 -271.714 357.042
4897 1 -20.2152 -66.2418 -18.8198 573.609 788.299 981.102 -89.3134 222.739 393.156 -780.468 872.435
2403 1 -22.36 -66.2008 -16.785 899.783 768.378 975.542 -60.4417 156.795 -203.536 -776.07 491.891
4905 2 -18.7136 -66.2312 -18.282 -113.816 -487.757 -692.612 16.342 -78.6805 -134.099 -272.522 575.954
2406 2 -21.2391 -65.5912 -17.7527 -383.533 -517.555 -339.9 -72.1059 -228.206 -46.9365 -276.366 451.834
2507 2 -20.1926 -65.4581 -20.2206 -468.809 -540.954 -364.62 48.4252 -90.7306 -160.128 -272.536 363.636
11 2 -24.4763 -65.3875 -19.8066 -394.595 -398.038 -200.749 20.6945 -29.5736 -369.352 -260.877 671.883
2412 2 -23.0845 -65.0753 -15.9188 -402.083 -104.023 -557.828 20.6539 -42.1696 154.107 -268.6 487.215
2506 2 -18.3739 -64.4234 -15.4003 -38.6558 -475.265 -483.965 -39.3118 -241.15 41.0437 -259.816 615.347
2501 2 -20.9493 -64.0281 -14.9135 -647.503 -485.083 -713.781 70.1973 -15.0984 123.545 -273.879 320.617
2 1 -22.4138 -63.6678 -15.2863 682.149 750.849 1051.9 94.5176 66.766 -21.1374 -785.231 396.926
7 2 -24.5066 -62.9167 -20.3205 -503.173 -1090.59 -731.044 37.8582 146.256 -55.3846 -259.352 583.783
2503 2 -19.6875 -62.9449 -19.9267 -477.742 -188.203 -382.447 72.1401 -0.0238348 183.901 -266.343 427.076
8 2 -22.4595 -62.5344 -16.415 -539.615 -422.987 -412.491 3.17345 41.2221 -53.4213 -274.295 169.191
9893 2 -10.4492 -68.9564 -14.9596 119.336 -437.915 -589.674 -369.161 165.887 -115.12 -275.771 974.31
2512 1 -19.5467 -64.2966 -14.2633 619.402 747.984 999.396 140.138 -93.6977 -60.2276 -807.687 456.294
4935 1 -17.2594 -66.4025 2.77875 663.616 1145.27 1198.7 -188.771 163.489 -233.775 -880.238 782.064
2505 2 -17.9268 -61.9663 -18.2883 -270.809 -454.909 -591.71 -160.029 13.7479 6.13791 -274.561 394.082
2500 1 -19.6488 -64.1393 -20.9747 488.571 857.601 608.428 -95.9819 -95.4558 45.404 -777.335 409.237
5029 1 -14.3569 -61.7066 2.71886 720.176 1344.09 757.936 -113.181 -61.02 -77.0047 -868.133 659.182
7401 2 -13.8164 -67.477 -19.029 -133.416 -454.833 156.28 24.2439 603.967 -178.991 -269.317 1213.49
7398 2 -11.3413 -67.3733 -19.2267 -359.556 -624.524 -351.006 -67.4872 -205.75 -200.759 -276.582 578.032
7395 1 -12.423 -67.3128 -18.0826 777.534 1028.83 862.752 92.1012 188.442 686.065 -770.337 1262.15
4899 1 -17.2314 -66.8575 -17.9672 601.891 942.831 951.479 -235.298 2.08122 146.859 -776.265 591.671
7393 1 -14.9694 -66.8728 -20.1069 688.325 686.884 905.015 -120.171 335.219 341.269 -760.992 881.533
4902 2 -16.2094 -66.7226 -19.1607 -530.594 -557.256 -596.53 29.2132 -55.7737 -118.119 -280.529 238.85
4908 2 -16.8397 -66.0832 -16.6429 -598.451 -312.394 -431.693 124.341 -27.8115 167.149 -270.79 440.968
7404 2 -12.347 -65.8578 -17.2311 -286.493 184.05 -56.8682 94.3835 114.903 425.22 -272.542 880.261
5003 2 -14.4326 -65.4959 -20.5545 -498.299 -608.563 -728.419 -122.994 -18.654 6.35604 -285.017 293.747
7493 2 -10.8807 -64.6991 -15.1064 -510.901 -514.522 -461.805 177.697 175.291 167.81 -262.752 523.442
5002 2 -13.4327 -64.6489 -15.0291 -391.209 -402.863 -174.358 -45.3891 -244.705 40.591 -271.133 490.36
4994 1 -12.1811 -64.6052 -16.0629 865.839 821.208 1302.39 29.807 -12.7216 206.612 -788.367 585.89
4997 2 -15.9358 -64.7503 -14.4659 -376.568 -489.664 -371.508 8.47884 133.846 15.4926 -267.864 260.9
2498 1 -16.8002 -64.6908 -15.8121 929.677 857.057 1007.05 7.51842 -26.5765 -71.8162 -791.875 186.117
2504 2 -16.3288 -63.5712 -16.8855 -439.002 -186.544 -227.925 33.4526 -34.0636 -291.278 -273.197 562.465
5000 2 -12.0254 -63.1649 -16.7568 -498.718 -18.0801 -550.635 69.1008 -23.1546 -122.336 -270.927 565.237
4999 2 -13.5508 -63.0714 -19.8477 -376.533 -312.285 -511.515 58.5942 14.3962 147.547 -284.435 327.494
2499 1 -16.5127 -62.0725 -17.5564 667.697 866.601 996.472 23.1317 30.6593 -161.912 -788.175 406.611
2502 2 -15.3642 -61.6697 -18.6128 -206.636 -382.841 -369.354 83.6951 -212.021 -24.7951 -279.034 431.938
4995 1 -11.8014 -61.5823 -17.089 888.399 1052.6 771.57 -215.446 88.2057 -117.123 -790.327 513.362
7308 2 -10.349 -71.1362 -13.9235 -548.708 -6.79874 -764.048 234.194 186.726 297.651 -270.345 995.822
5031 1 -11.5721 -61.8588 4.18299 906.567 1069.03 883.852 73.127 36.9604 -105.429 -865.095 289.981
4906 2 -18.5435 -70.6345 -13.7621 227.499 -450.956 -785.821 -197.314 -64.9057 -5.0006 -264.899 963.918
4913 2 -20.8797 -69.8909 -7.34944 -60.834 -1083.24 -227.607 215.599 248.305 -2.63837 -227.123 1107.72
2422 2 -23.5997 -69.0963 -7.84168 78.4629 -366.827 -740.116 -47.7836 -83.2376 -51.7369 -260.769 734.517
2414 1 -22.0102 -69.0143 -8.0695 979.531 1058.87 863.394 -74.0625 101.185 223.953 -808.221 476.058
2328 2 -21.7435 -68.5973 -9.58382 -654.419 -476.738 -394.29 79.5727 -184.367 -265.269 -252.41 620.556
4918 2 -18.4499 -68.6537 -7.18163 -181.498 -457 -547.824 88.1333 -301.531 -16.3292 -263.797 637.211
4915 2 -19.2761 -68.2294 -13.7911 -569.629 -537.472 -380.994 61.3483 -96.672 271.491 -272.946 539.445
5038 2 -13.5661 -64.4065 6.63313 -324.911 -756.575 -498.61 148.803 -190.376 -131.809 -218.534 607.291
7409 2 -16.0615 -69.7858 -7.51615 -102.606 -853.451 -420.712 -25.9612 122.443 -67.1231 -232.874 697.586
7414 2 -13.4399 -68.977 -7.92736 -148.411 -431.47 -732.67 61.6386 -40.2535 -22.5378 -264.741 523.34
7406 1 -11.8676 -68.7465 -7.99961 423.912 1151.08 792.064 -113.849 -334.577 82.8476 -802.172 889.888
4910 1 -17.0962 -68.6438 -7.9984 455.293 1169.59 917.561 33.3612 126.559 73.8162 -798.801 679.303
7411 2 -14.369 -68.8353 -12.5903 -550.538 -162.156 -388.544 -43.1605 -53.3863 367.924 -268.457 731.034
4824 2 -17.3665 -68.2423 -9.51232 -530.815 -472.185 -363.765 -60.8293 -83.4398 -240.696 -260.48 476.802
7320 2 -11.4293 -68.3639 -9.48634 -577.751 -410.651 -360.012 66.0541 -118.254 -122.971 -254.638 373.304
9905 2 -10.919 -69.7877 -7.25174 -370.506 -741.678 -326.075 113.012 329.469 90.9423 -227.616 738.248
7420 1 -14.8053 -68.8196 -7.14349 284.674 1172.93 950.698 18.5468 -82.6928 -75.3231 -812.517 824.351
10 2 -23.3773 -63.4454 -14.0211 -225.178 -473.196 -446.179 96.7625 -236.964 -120.025 -266.357 543.42
2419 2 -25.0638 -68.0549 -13.4983 -430.038 -285.317 210.104 146.089 215.35 375.957 -257.579 982.48
2420 2 -21.1167 -67.878 -7.15461 -97.883 -1211.07 -374.127 269.559 136.131 2.46628 -221.317 1132.07
2418 2 -20.6105 -67.3595 -11.696 -651.572 -506.183 -222.206 -83.7019 -217.907 126.584 -264.335 595.488
2421 2 -23.1267 -67.5365 -11.5309 31.8606 -505.892 -248.149 -17.218 274.43 89.2741 -250.116 683.917
2415 1 -21.7862 -67.3554 -10.5949 945.297 1205.86 839.012 -12.6067 201.075 253.046 -814.246 648.655
4909 1 -19.4213 -67.0829 -12.6953 1055.13 753.8 813.557 -5.90855 188.983 -275.259 -807.68 641.026
2413 1 -24.6404 -67.0652 -12.1351 1113.61 1104.25 945.039 -63.3158 241.838 60.0584 -812.573 474.583
2424 2 -21.8826 -66.0891 -9.53729 -489.179 -566.572 -129.091 15.4686 25.0789 267.937 -255.024 617.654
2519 2 -19.6355 -65.7182 -13.5415 -521.497 -449.61 -475.054 -9.42613 -11.1138 -108.788 -258.48 200.319
23 2 -24.4688 -65.6186 -12.7924 -539.656 -306.352 -380.498 46.667 -52.0327 -189.702 -264.337 406.505
22 2 -23.364 -65.544 -7.54869 -338.604 -582.393 -522.393 110.47 -192.814 -36.0382 -242.13 447.712
14 1 -21.9248 -65.163 -8.22646 1068.75 1194.98 863.681 136.772 170.033 -233.001 -838.603 624.175
16 1 -24.7192 -64.1675 -13.4566 1040.64 979.572 957.438 -43.7283 44.1267 -17.3542 -810.217 134.36
20 2 -21.8805 -63.6646 -8.91598 -634.617 -281.698 -377.298 23.2781 -183.341 -217.486 -246.016 586.787
2515 2 -19.2479 -63.2151 -13.1515 -490.968 -593.034 -300.534 -81.9234 -91.3659 134.143 -261.481 406.546
18 2 -21.198 -62.7335 -11.3483 -85.7247 -489.722 -233.139 89.5958 -328.235 -34.3361 -255.686 690.09
21 2 -23.6982 -62.5674 -10.3282 -312.814 -582.109 -485.965 -94.1155 21.4117 93.6262 -249.434 331.841
2517 2 -18.652 -62.3054 -10.7405 -405.382 -574.387 -479.627 -39.1229 48.5979 3.7102 -259.339 182.334
15 1 -22.1386 -62.5366 -10.015 942.658 937.757 1036.13 122.481 25.4032 -57.7652 -829.676 257.235
2509 1 -19.7193 -62.2423 -11.9287 1127.61 986.177 817.848 14.6055 -66.7833 -124.424 -810.06 364.153
13 1 -24.9972 -62.0422 -11.1739 905.094 1146.45 751.095 149.329 281.21 -131.666 -826.253 689.407
4917 2 -18.0682 -66.9875 -11.7541 -346.696 -482.47 -93.3466 2.52416 274.011 146.115 -257.349 637.442
2497 1 -19.3403 -61.6098 -18.9367 836.95 874.028 971.242 139.704 -22.7298 56.8392 -788.202 290.213
2513 2 -20.7868 -65.1328 -7.10752 -609.631 -860.397 -252.161 -48.0226 11.733 131.87 -247.493 582.933
4916 2 -15.8417 -67.6714 -7.5432 -85.7068 -1119.77 -603.44 -6.91523 -66.6037 113.256 -236.561 924.064
5008 1 -14.4733 -64.8278 -13.7849 945.983 797.012 834.157 73.3674 -109.708 -20.6235 -801.162 267.527
7405 1 -14.3363 -67.3508 -11.9688 853.114 855.533 799.924 9.27881 167.846 -158.144 -811.935 403.445
4914 2 -15.6154 -66.9991 -11.1142 -411.189 -501.267 -474.964 -108.709 -255.595 90.8092 -258.669 512.459
4911 1 -17.0992 -66.9442 -10.4316 975.28 1143.7 928.104 92.7408 75.8955 110.495 -808.299 343.872
7407 1 -11.5413 -67.0336 -10.4183 794.116 1235.45 753.651 -85.7419 -9.6022 -49.4819 -813.584 493.914
7413 2 -12.9868 -67.1263 -11.0922 -395.362 -597.123 -394.834 128.35 169.785 140.729 -255.783 485.932
5015 2 -14.3337 -66.2889 -13.1564 -613.484 -366.309 -646.806 26.9972 -9.03205 -8.71002 -260.571 270.373
7416 2 -11.3812 -65.7357 -9.47396 -464.819 -386.747 -356.919 29.9707 25.4206 239.619 -259.294 431.508
4920 2 -17.336 -65.7274 -9.3647 -493.952 -391.146 -37.8912 -19.6375 -91.5593 319.676 -260.258 710.324
5014 2 -12.9438 -64.9037 -7.51654 -88.5251 -563.691 -420.991 129.275 -276.68 92.6591 -241.246 695.621
2510 1 -17.1844 -64.7875 -8.01732 1026.15 1219.09 972.755 -33.9298 46.007 -181.47 -830.428 398.719
5009 2 -15.6814 -64.7612 -7.48273 -241.716 -793.932 -407.145 68.5144 87.5455 137.697 -248.372 578.718
5006 1 -11.5071 -64.6725 -8.26064 1004.23 1130.95 990.892 32.7207 -144.753 -372.188 -837.756 706.803
2516 2 -17.3965 -63.2434 -8.57722 -634.474 -161.846 -355.132 71.4462 -20.7817 -184.598 -244.666 536.864
5011 2 -14.3909 -63.7634 -12.6023 -455.784 -356.37 -186.815 -107.204 -155.548 262.421 -266.098 607.574
5012 2 -11.497 -63.205 -9.05869 -648.314 -210.003 -276.539 21.2423 -102.568 -195.83 -245.799 561.553
2514 2 -16.0437 -62.6413 -10.6436 -341.295 -531.946 -497.3 -65.3182 -114.16 149.797 -257.006 387.501
5010 2 -10.8668 -62.2145 -11.5268 -231.571 -544.703 -379.186 98.8512 -189.125 -83.6053 -258.214 480.84
5013 2 -13.3705 -62.4904 -10.5086 -289.335 -534.132 -625.909 166.819 -8.57311 222.832 -250.76 568.756
5005 1 -14.6538 -62.5775 -11.4802 869.739 859.077 1070.66 -47.5382 -27.9692 -78.0478 -816.304 264.621
2511 1 -17.3453 -62.2319 -9.83887 851.276 847.012 894.128 -44.9182 58.8289 -140.541 -831.135 278.798
5007 1 -11.8325 -62.138 -10.2075 867.808 914.753 1052.29 75.3956 -100.559 -234.467 -826.079 489.787
7412 2 -11.2308 -67.6692 -6.99368 -164.752 -1052.32 -470.37 95.0191 216.222 -35.5643 -242.74 883.775
7410 2 -10.4993 -67.0509 -11.658 -308.961 -572.165 -285.554 63.4237 -82.9645 100.375 -258.12 372.73
2428 1 -25.0769 -69.0645 -7.18414 877.791 1183.16 653.29 19.0943 -4.73163 -73.1829 -820.762 478.996
4924 1 -19.9386 -68.7862 -6.55122 994.843 1049.66 726.108 -112.289 95.3595 23.3275 -816.443 395.846
2431 2 -24.7343 -68.7792 -5.69882 -743.856 -428.402 -426.24 57.5994 64.3436 255.66 -243.222 564.498
4927 2 -19.8477 -68.5213 -4.99289 -758.22 -522.388 -196.054 81.794 -118.4 269.706 -245.975 720.709
7332 2 -12.2166 -70.4789 -1.96295 -565.685 -219.659 -570.815 65.0491 34.8756 -252.979 -125.698 574.347
7418 1 -12.3518 -69.6295 -0.745351 1453.17 1014.61 1053.1 6.33171 -24.402 250.531 -936.761 605.918
4928 2 -16.2038 -68.2465 -1.30971 -252.201 -412.751 -126.908 -193.672 302.697 -312.62 -224.596 861.504
7423 2 -14.4385 -68.4912 -5.643 -636.563 -518.746 -478.358 141.35 -53.4743 295.716 -235.717 592.565
7426 2 -13.9441 -69.6151 -0.215348 44.5885 -570.492 -634.379 -153.611 10.8478 -168.742 -202.977 760.438
2432 2 -23.0265 -67.9699 -1.00594 -550.681 -300.48 37.9153 182.318 -414.568 -229.973 -263.61 1017.72
2518 2 -18.2585 -65.213 -6.87653 -335.909 -485.126 -206.185 91.8024 -362.605 38.8236 -249.842 694.769
2433 2 -23.7295 -67.3989 -3.46816 -462.35 -786.386 -273.085 -31.4035 29.2401 136.715 -242.25 513.562
2425 1 -24.8633 -67.5873 -4.57061 1167.86 1395.77 589.077 161.62 108.438 -135.619 -842.801 829.254
4929 2 -18.3167 -67.4585 -3.07486 -260.527 -676.209 -288.547 -23.5592 195.344 -48.4972 -239.4 533.974
2430 2 -21.0841 -67.3312 -2.91308 -44.116 -624.465 -187.094 69.3601 -446.411 0.124266 -246.33 941.569
4921 1 -19.7328 -67.349 -3.88457 1391.03 1077.91 677.113 -116.232 151.491 -43.4678 -839.963 706.558
2427 1 -22.6015 -67.0773 -2.35413 1348.73 1090.15 770.039 -66.9029 240.964 -115.59 -835.589 692.686
2531 2 -19.7187 -66.0621 -4.82304 -651.577 -596.845 -295.702 14.2872 -102.11 -63.4924 -251.975 392.62
35 2 -24.7381 -66.2106 -5.4497 -639.948 -170.867 -350.945 89.2385 -219.837 -207.022 -242.462 682.235
2436 2 -22.7338 -65.4879 -2.21702 -665.998 -179.243 -495.095 65.2737 -128.318 -93.652 -247.302 521
28 1 -24.6015 -65.0982 -6.64039 1051.8 1122.41 904.764 7.7719 264.752 -82.9425 -851.567 517.773
2524 1 -19.6543 -65.0053 -6.01096 1177.06 1002.71 786.456 -90.3221 109.305 12.7751 -839.942 419.138
2536 1 -19.8734 -63.8489 -0.810837 669.739 1161.59 890.381 -92.028 66.4406 7.47508 -848.233 469.996
26 1 -22.6544 -63.8597 -2.03341 1079.14 1055.33 889.624 -66.6713 199.716 305.605 -835.014 667.196
2530 2 -18.562 -63.8454 -1.67956 -236.884 -613.404 -638.161 5.58623 -17.9147 14.793 -240.125 391.682
2525 2 -21.2041 -63.3947 -1.49423 -402.294 -534.772 -600.19 122.894 -121.293 32.0375 -252.607 350.743
34 2 -23.9304 -63.4218 -1.15377 -217.586 -537.263 -468.735 43.8509 -244.213 -68.7459 -242.124 532.776
31 2 -24.2722 -63.5547 -6.2586 -633.482 -6.94241 -543.27 62.9255 -125.888 63.8429 -241.118 644.84
2527 2 -19.6331 -63.4676 -5.48444 -550.157 -20.241 -511.622 32.6904 -87.328 94.7724 -247.118 561.164
32 2 -22.7828 -63.1011 -3.44012 -712.528 -247.622 -476.477 14.5661 -120.03 -222.498 -238.789 595.391
25 1 -24.4468 -61.9571 -5.88478 963.548 1046.72 836.903 -29.0053 -24.3694 52.8704 -837.525 214.901
2521 1 -19.5641 -61.8671 -5.10008 829.371 1025.95 1082.64 33.7924 94.9307 64.5775 -835.123 309.797
27 1 -22.3503 -61.5639 -3.88613 909.376 1192.99 745.613 16.8409 138.358 77.9717 -830.919 479.814
2543 2 -20.0446 -65.3941 -0.248808 -565.209 -349.972 -558.4 -11.1647 -59.0901 -245.54 -241.912 486.443
19 2 -25.3115 -63.1594 -12.2777 -596.958 -233.339 -335.963 -82.9986 -127.416 223.312 -251.418 569.569
40 1 -25.1532 -63.9766 -0.181608 1060.39 912.941 808.891 32.8006 -2.92903 -105.499 -837.996 290.782
30 2 -20.7911 -61.5473 -4.10138 -469.509 -615.096 -605.134 -32.6814 -111.398 28.3863 -245.131 250.389
7447 2 -14.2468 -67.5477 5.57496 -302.978 -501.615 -233.813 48.0384 24.9847 21.4817 -145.143 261.073
7424 2 -12.1645 -68.0154 -1.09877 -650.758 -415.686 -373.528 -35.574 63.4899 -222.264 -212.669 480.665
7425 2 -13.2609 -67.2544 -3.56568 -558.382 -843.498 -164.778 1.92945 84.7772 53.7046 -227.525 615.357
4926 2 -15.8176 -67.3662 -3.7138 -451.418 -705.57 -281.367 151.039 -276.142 -28.0625 -222.548 660.524
4923 1 -16.8346 -67.2558 -2.46545 1083.4 1057.44 969.657 -197.5 165.472 -43.0358 -870.057 464.087
7417 1 -14.423 -67.2434 -4.60417 1188.89 1324.11 514.509 -44.7457 -82.6032 -242.321 -867.044 875.728
7419 1 -12.226 -66.9526 -2.29462 1167.22 1065.18 1084.32 -57.279 186.449 -105.003 -880.43 395.012
7422 2 -10.7385 -66.7854 -2.93877 -399.703 -722.943 -456.269 80.1985 -153.082 97.5188 -222.48 455.551
5027 2 -14.3043 -65.9198 -5.48318 -606.356 -344.162 -383.074 7.55275 -92.9951 -57.4008 -244.596 309.931
4932 2 -16.7824 -65.7543 -1.99704 -604.182 -594.605 -621.1 101.266 -66.2313 -88.054 -239.063 260.24
7428 2 -12.5546 -65.4667 -1.88793 -725.388 -388.747 -626.706 155.862 55.3459 -34.7107 -231.621 418.961
5020 1 -14.3274 -64.7266 -6.59935 1143.36 1043.11 1122.22 -95.2779 40.2018 -225.999 -840.939 440.098
2522 1 -16.9553 -64.1778 -1.88735 1020.16 1004.06 962.359 -171.962 82.4447 98.2881 -853.813 375.174
5018 1 -12.2364 -63.9001 -1.6492 1153.64 1118.43 932.607 -152.291 -13.6433 29.4492 -845.068 339.19
5021 2 -16.0396 -63.5844 -0.699083 -263.283 -655.11 -435.25 135.844 193.166 132.895 -235.752 579.658
5023 2 -14.1541 -63.2173 -6.05943 -658.344 -359.798 -553.518 236.939 69.3653 -64.5342 -247.495 513.976
2528 2 -16.5682 -63.3919 -3.20523 -595.093 -523.811 -488.217 21.8186 -17.7878 -141.789 -240.714 267.535
5024 2 -12.205 -63.0255 -2.99815 -609.827 -554.375 -327.445 -60.9914 94.7845 -71.7668 -247.351 347.447
2523 1 -16.717 -61.9116 -3.84163 657.635 1126.31 834.178 -77.4317 61.7833 -132.628 -853.292 500.294
5017 1 -14.2663 -61.6672 -5.77508 925.105 1005.94 565.791 -76.7269 -134.629 -110.167 -843.518 522.619
2526 2 -15.7258 -61.6022 -5.03869 -584.366 -686.697 -469.09 102.991 -84.6073 -17.1339 -232.591 299.556
7517 2 -10.7536 -63.8701 -0.927407 -263.746 -624.214 -412.22 -13.8221 216.024 4.97098 -244.552 488.987
5026 2 -13.4295 -63.2978 -0.707632 -287.045 -669.813 -381.42 21.8239 -130.402 82.2025 -242.115 438.188
7436 2 -11.3468 -67.4451 4.20441 -677.989 -547.656 -768.979 17.1233 110.334 7.80026 -217.574 273.327
4930 2 -19.0853 -69.8671 1.60657 149.693 -485.344 -581.192 -71.1216 336.083 -27.0205 -234.767 910.794
2434 2 -24.682 -69.8343 0.267382 55.4969 -463.369 -320.259 -29.1571 -426.071 -60.4309 -249.566 879.524
2459 2 -25.3501 -69.5009 5.29313 -259.484 -557.554 -323.083 121.944 182.797 111.875 -226.018 506.297
4925 2 -22.0149 -69.3844 0.848827 89.3071 -471.935 -749.121 -282.889 92.4624 116.361 -254.965 923.98
4937 2 -20.0279 -68.9758 5.47004 -523.321 -633.665 -640.46 -91.9945 76.072 -41.4553 -225.065 246.733
4943 2 -21.0583 -69.3583 3.18351 -716.065 -613.914 -385.912 -40.6555 -135.902 -73.9443 -225.467 403.089
4936 1 -20.5776 -69.19 1.63574 1191.6 1012.28 1188.06 103.62 -65.5415 -175.709 -836.09 411.404
4948 1 -18.6558 -68.9532 6.31824 943.526 1155.79 699.862 335.684 131.798 -315.644 -864.798 919.352
2446 2 -22.6833 -69.0246 5.23071 -520.363 -747.648 -333.671 75.964 -66.8394 41.138 -227.423 405.876
2426 1 -23.3967 -68.8406 0.293365 821.596 1002.97 1021.01 121.394 288.978 -27.807 -778.257 577.537
2438 1 -21.302 -68.6374 4.59861 1057.93 1241.34 525.786 123.915 -41.7813 68.0795 -873.171 692.549
2452 1 -24.1039 -68.5176 5.86751 1097.15 1454.85 503.193 51.4131 -39.1334 -176.602 -883.587 894.023
7432 1 -15.3818 -68.8602 0.0515369 1404.69 1114.72 1080.8 -249.435 208.822 -43.1685 -880.693 646.632
4955 2 -17.7971 -70.2658 6.13304 -419.139 -835.845 -355.246 -86.5162 -214.196 201.093 -204.996 696.966
7344 2 -10.6782 -69.6553 3.07808 -546.852 -523.616 -18.5971 100.304 -133.841 32.0557 -220.637 595.252
4940 2 -17.0257 -70.1361 3.53904 -603.523 -727.354 -130.908 70.0183 233.453 69.0359 -226.655 699.807
4934 1 -16.672 -69.6859 5.04414 881.104 1502.92 933.68 120.686 -65.3643 -52.3411 -864.527 649.195
7433 2 -15.1938 -69.8667 5.47427 -209.296 -675.241 -566.6 68.1038 214.727 18.1467 -217.225 575.771
9917 2 -11.2148 -69.9174 0.430876 -239.617 -628.549 -371.369 -38.2643 354.378 -64.8957 -203.176 714.957
7421 2 -16.4878 -69.68 0.912033 -456.449 -493.163 -426.175 76.898 -296.028 -145.955 -226.656 589.85
4922 1 -17.5394 -69.5602 2.12583 1234.3 995.265 1190 6.79414 46.0226 260.862 -863.943 509.068
7438 2 -12.4209 -69.459 5.31661 42.2922 -666.926 -359.063 17.5178 -316.474 65.9268 -220.316 832.979
7444 1 -13.8735 -68.9827 6.02716 1066.27 1558.41 1041.36 -191.049 -90.8193 -126.273 -902.115 661.186
7430 1 -11.0661 -69.0309 4.54825 1056.85 1173.89 1291.81 -212.994 -88.6471 197.217 -874.796 563.704
4942 2 -17.4881 -68.2625 5.44002 -415.145 -819.751 -373.432 -325.895 -167.824 305.8 -204.759 930.581
2443 2 -24.4217 -67.9377 1.36297 -167.894 -450.04 -673.528 33.7554 -405.374 -150.843 -306.902 870.214
4939 2 -20.2242 -67.6238 1.25815 -527.047 -411.298 -574.515 195.812 -108.278 -197.598 -244.777 537.102
2444 2 -21.2537 -67.0803 4.15373 -751.441 -553.455 -353.037 -23.482 92.3672 -38.5383 -236.024 388.267
2441 2 -24.2799 -67.1182 5.2758 -545.836 -709.803 -193.713 43.8613 -103.445 156.216 -159.512 565.417
2437 1 -24.381 -66.3107 1.66939 848.347 562.235 978.968 5.96676 221.577 -145.703 -811.903 589.389
4933 1 -19.6756 -66.1223 1.10434 1049.04 1022.4 868.603 44.7524 117.863 316.388 -850.687 613.552
2445 2 -22.9211 -66.1206 2.2742 -605.306 -563.849 -494.553 -57.0419 164.213 49.1282 -249.441 327.557
2439 1 -21.6791 -65.8366 3.24931 1241.96 993.158 657.292 -3.05675 56.3026 -308.561 -861.111 743.937
2442 2 -20.4724 -65.4522 2.31431 -801.179 -832.739 -589.853 1.0012 -66.8387 -15.3475 -225.757 257.752
47 2 -24.6389 -65.3902 0.425896 -570.047 -317.699 -692.689 -49.2307 23.069 -118.932 -257.025 401.212
2448 2 -22.0596 -64.547 4.14194 -781.411 -578.925 -411.052 -49.6534 10.3324 103.405 -232.661 378.111
46 2 -23.6653 -64.3583 6.30046 -684.999 -612.903 -310.553 54.9445 -198.556 -202.211 -230.094 606.967
38 1 -22.2875 -63.8994 5.59541 1195.2 1233.09 564.351 207.179 20.0898 -45.331 -857.974 747.966
2539 2 -19.5767 -62.9733 0.499356 -710.658 -599.815 -601.518 112.141 10.5864 46.9894 -231.576 238.302
43 2 -25.2451 -63.0038 1.04734 -652.814 -374.162 -326.652 121.884 145.335 168.557 -243.568 535.081
44 2 -22.1204 -62.353 5.04858 -505.833 -609.777 -211.763 141.679 -148.249 -252.591 -230.49 667.388
45 2 -23.2188 -62.2225 2.64794 -123.954 -729.093 -403.58 -11.2741 15.3486 51.1678 -241.829 533.023
42 2 -20.5635 -62.1683 2.71797 -642.073 -870.484 -457.962 158.038 -68.8837 13.9923 -231.434 466.767
37 1 -24.8103 -61.9706 2.29439 1448.53 989.04 809.785 -69.5582 83.6389 117.138 -841.209 634.269
2533 1 -19.3848 -61.9622 1.70167 1056.43 1141.93 557.863 -199.523 69.5736 -103.702 -879.8 681.705
39 1 -21.9087 -61.8792 3.50218 985.07 1203.01 973.9 -93.7168 90.4721 -105.183 -863.319 366.267
2541 2 -17.9847 -62.2091 2.44397 -344.946 -669.347 -415.07 44.8572 236.594 51.3965 -220.462 518.938
2542 2 -18.6852 -65.0321 6.45438 -518.793 -587.006 -310.062 18.8572 -124.041 55.7047 -227.832 344.956
29898 2 -25.4729 -65.9649 2.7118 -706.369 -545.693 -701.647 -68.6213 -187.879 347.862 -246.494 712.829
2537 2 -21.1742 -64.2726 6.62756 -657.035 -603.327 -471.575 -103.79 24.8682 -18.7261 -235.962 250.087
4941 2 -18.0978 -65.8928 1.43915 -243.925 -667.803 -411.628 158.582 231.404 -47.9721 -227.142 616.2
7429 1 -14.527 -66.3559 1.77032 843.202 864.56 1316.17 -328.166 -56.6096 83.8897 -882.65 753.561
7435 2 -14.9736 -67.5957 0.907454 -625.264 -893.584 -613.841 161.623 62.037 -56.5175 -225.995 417.955
2535 1 -17.1585 -62.0027 3.87014 1063.61 956.145 1019.04 -141.737 187.761 1.09217 -883.111 418.066
4938 2 -15.7642 -66.0788 2.76219 -711.453 -638.676 -857.309 42.2759 -41.2154 -9.89286 -220.521 218.945
5039 2 -14.5541 -65.1326 0.745282 -641.76 -797.296 -611.283 64.8919 58.7663 -84.9001 -226.771 272.907
7431 1 -11.9142 -66.1561 3.51151 848.325 834.204 891.96 165.829 -314.535 -114.689 -901.069 649.212
2540 2 -17.7266 -63.1444 4.76458 -705.806 -463.324 -609.78 165.858 -160.931 12.7157 -217.778 453.257
5030 1 -12.197 -64.2604 5.91205 940.291 1136.41 831.835 133.639 147.677 13.5056 -894.52 437.091
7437 2 -13.1222 -66.4467 2.56342 -626.514 -562.631 -637.281 -22.8602 264.027 -52.5451 -220.49 473.146
5032 1 -14.6917 -63.6672 0.204159 1055.23 1101.63 856.572 -192.577 -32.831 -29.2118 -865.161 409.738
5036 2 -11.8159 -62.7566 5.51407 -624.81 -581.715 -490.987 62.2834 -74.3775 -189.905 -222.479 387.845
7434 2 -10.7644 -65.7623 2.46125 -676.08 -714.64 -481.139 -118.325 -8.58338 -64.2539 -217.187 318.772
4836 2 -17.518 -67.9873 2.60841 -617.561 -484.653 -816.163 100.037 -25.2212 199.822 -222.394 484.994
4944 2 -17.8715 -65.6472 4.03181 -828.003 -631.483 -481.998 129.082 17.88 239.065 -222.564 559.236
5033 2 -16.1701 -64.6806 5.92251 -518.026 -861.328 -365.849 198.235 218.378 117.29 -211.946 703.908
2534 1 -17.611 -64.7185 5.28744 1187.61 1407.44 627.729 -138.646 40.5321 -201.614 -892.871 818.178
5037 2 -12.97 -61.8308 3.37193 -677.777 -700.687 -408.889 -15.3733 59.152 29.4019 -241.176 304.607
7440 2 -12.1835 -65.0044 4.50376 -726.86 -805.867 -689.012 -82.1663 124.499 -108.755 -219.525 336.009
5035 2 -14.6984 -62.6914 1.51458 -570.995 -599.463 -404.318 169.902 138.943 117.741 -231.493 468.445
2538 2 -15.5708 -61.9861 3.75632 -312.641 -804.019 -638.572 128.153 -47.2977 79.6532 -221.433 512.389
4993 1 -13.9088 -61.5764 -19.3573 904.97 689.028 851.053 -94.7607 -48.6757 -39.5445 -769.039 276.827
4998 2 -10.2316 -61.4151 -17.4464 -152.132 -568.203 -421.196 81.0217 -78.1497 -99.2471 -268.706 448.471
3 1 -22.132 -61.3591 -17.4199 757.372 987.359 822.745 -91.0439 81.8732 47.7127 -803.864 306.494
2529 2 -18.1475 -61.6247 -4.38349 -691.846 -576.121 -529.99 -32.798 89.5219 40.3121 -245.078 230.225
7529 2 -10.9506 -64.7334 6.82543 -359.514 -697.387 -433.728 -145.629 101.55 -21.7066 -227.47 436.538
2453 2 -25.076 -68.9891 13.6585 -296.434 -431.713 -557.005 70.6321 257.524 -5.95597 -250.382 514.759
4951 2 -19.0787 -68.3068 7.69929 -639.128 -484.117 -382.903 -146.395 -157.026 139.066 -237.162 496.231
2455 2 -24.1533 -68.4462 7.44582 -664.927 -684.124 -340.224 -7.71457 -17.7137 190.282 -231.086 470.931
2456 2 -21.5642 -68.4778 12.3414 -663.559 -495.208 9.20265 64.9179 270.577 -184.99 -230.31 838.232
7451 2 -13.9034 -69.089 7.65553 -547.123 -648.483 -101.713 -2.01354 -75.6145 154.141 -229.197 585.025
7448 2 -12.7709 -68.6156 10.2972 -140.781 -495.929 -418.879 202.324 343.171 355.999 -210.994 980.313
2457 2 -22.8857 -67.9972 9.82618 -140.984 -659.978 -83.179 -44.1096 309.118 -80.5017 -231.807 783.989
2454 2 -20.3234 -67.8694 10.1279 -313.883 -577.734 -337.837 22.7149 -354.02 118.699 -229.89 695.47
2451 1 -21.7022 -67.6752 10.9244 1158 1250.77 1002.41 -166.764 173.649 -83.0198 -866.04 491.751
2449 1 -24.164 -67.6431 8.82503 1427.06 1232.25 735.227 51.1917 229.146 -82.7548 -858.6 753.483
4945 1 -19.2968 -67.3316 8.95537 1108.33 1116.98 991.99 60.0818 -44.3221 -139.235 -864.331 299.162
2555 2 -20.0088 -65.9502 8.42678 -697.621 -411.634 -557.28 -67.8127 110.375 -13.0204 -230.063 334.964
2460 2 -22.084 -66.1438 11.3841 -518.148 -367.097 -588.727 -150.415 -147.34 145.231 -232.335 484.496
59 2 -24.1031 -66.0453 8.42122 -620.854 -406.465 -463.848 -92.9167 -74.4763 -143.627 -236.631 376.005
50 1 -22.1568 -64.8487 12.309 887.512 974.831 1058.47 20.2187 -92.2405 -114.53 -872.673 296.692