ITEM: TIMESTEP
1900000
ITEM: NUMBER OF ATOMS
29952
ITEM: BOX BOUNDS pp pp pp
-2.5615833775063237e+01 3.5601128117061187e+01
-1.2460961839729605e+02 1.3459491273149479e+02
-2.1035324467156940e+01 3.4903177627851115e+01
ITEM: ATOMS id type x y z v_StrAtomXX v_StrAtomYY v_StrAtomZZ v_StrAtomXY v_StrAtomXZ v_StrAtomYZ c_PEAtom v_VMS
4896 2 -16.747 -73.3648 -17.68 -245.797 202.605 -503.84 64.4432 80.9881 122.284 -167.036 678.494
2400 2 -19.4838 -69.6482 -18.4667 212.21 -566.263 -278.453 -108.087 380.127 -68.654 -281.561 973.386
4901 2 -21.0511 -69.4152 -15.229 25.9511 -644.631 -543.345 -79.299 63.0145 -83.3057 -294.747 666.045
4904 2 -18.4333 -69.5219 -16.001 76.357 -523.636 -353.438 -475.639 -49.4873 -14.631 -310.595 986.675
4912 1 -19.6027 -69.2456 -14.65 358.242 883.413 1100.87 304.201 34.0245 16.3731 -722.292 848.05
2494 2 -21.818 -69.1645 -20.2879 -226.857 -608.106 -129.251 55.9095 532.199 -80.0897 -274.723 1034.61
2316 2 -21.9684 -69.2624 -17.6251 -414.855 -662.326 -383.727 -46.6259 -220.079 -99.4085 -272.697 501.384
2486 1 -20.9787 -69.0213 -18.8943 1101.37 971.666 870.042 -26.7816 -100.757 -50.5341 -765.169 283.904
2410 2 -23.802 -68.9151 -15.6552 53.8292 -523.204 -600.439 -257.082 -173.287 -69.4457 -280.805 828.448
2402 1 -22.2305 -68.822 -16.1322 530.431 785.679 916.346 189.699 194.678 212.258 -768.563 687.31
2416 1 -25.1708 -68.6345 -14.9279 197.089 1064.97 1273.78 -154.329 -69.9482 75.8572 -755.548 1039.92
2407 2 -23.6591 -67.5507 -20.265 -475.133 -616.629 -303.02 -140.258 -161.279 71.3104 -264.509 475.713
4985 2 -20.6004 -67.4281 -18.8815 -514.012 -232.416 -582.017 64.077 -39.1063 -95.3362 -278.774 383.723
2408 2 -21.9133 -67.273 -16.1958 -496.22 -699.287 -769.845 -52.8443 -128.886 -92.152 -275.17 379.777
2401 1 -24.3463 -66.5344 -19.2352 835.365 1101.33 790.616 170.531 -27.207 94.1961 -793.442 448.023
4900 1 -18.0774 -69.5041 -17.6704 779.697 743.351 960.799 128.901 -127.921 484.1 -746.98 917.984
2534 1 -17.5909 -64.5535 5.35502 1210.77 1270.8 397.351 -221.779 20.2686 -115.981 -870.995 950.386
7392 2 -12.2325 -72.659 -15.429 358.181 -347.339 -826.477 33.8952 189.926 70.066 -278.041 1091.68
4982 1 -16.2795 -72.0504 -16.9918 888.355 580.542 1571.82 433.937 39.9045 -193.8 -805.859 1206.07
7478 1 -10.8669 -71.7326 -15.244 594.138 389.234 1873.33 133.598 -75.5671 15.7862 -699.334 1418.39
4812 2 -16.9128 -71.8007 -15.476 -441.045 -246.151 -603.79 -201.565 -105.933 32.6176 -272.417 504.906
7396 1 -13.4013 -71.6137 -15.7094 306.269 372.92 1708.24 239.593 1.58696 -124.034 -720.313 1447.37
7481 2 -14.6651 -71.7674 -16.7211 331.925 -177.436 -746.513 -4.74389 339.92 -4.79691 -282.405 1104.51
7486 2 -12.0258 -70.551 -16.0932 202.908 -238.395 -948.742 -138.414 160.915 -196.609 -313.991 1124.25
4990 2 -17.0075 -70.72 -17.7465 -147.366 -161.953 -454.416 -434.206 169.019 -196.733 -272.304 925.975
4898 1 -17.2957 -70.4028 -14.9004 270.686 982.895 1043.35 407.353 42.2432 -91.3721 -714.979 1040.27
7397 2 -15.9821 -69.4913 -14.7442 9.63447 -556.711 -531.16 171.974 33.0492 -23.2674 -301.373 632.895
7394 1 -11.9725 -68.9086 -15.8421 673.43 320.396 1218.03 10.1934 -30.7646 400.218 -740.237 1047.46
7402 2 -13.331 -68.7025 -15.0236 35.8861 -510.679 -854.256 75.1992 -17.5779 9.87239 -281.076 789.145
7400 2 -12.1393 -68.0375 -17.1303 -493.918 -342.741 -607.835 -69.0609 165.141 -287.05 -281.429 629.579
4903 2 -17.4897 -68.0762 -17.8955 -414.291 -448.445 -654.429 7.56111 -14.2681 -122.387 -290.865 310.401
7401 2 -13.7745 -67.2745 -19.0606 -99.9256 -609.237 -113.042 89.276 379.134 -12.9793 -281.781 841.745
7395 1 -12.4758 -66.8588 -18.1649 766.564 1048.72 953.126 77.0562 -197.923 462.722 -779.697 916.212
7398 2 -11.211 -66.7643 -19.2386 28.2937 -734.338 -264.602 -101.451 -336.225 -110.017 -262.238 922.146
7393 1 -14.9046 -66.7341 -20.1024 740.851 1105.34 973.701 129.403 220.96 459.684 -742.358 965.834
4899 1 -17.1936 -66.5086 -17.9831 557.743 787.46 1014.02 -95.0119 96.3542 68.0388 -763.779 474.306
7399 2 -13.9798 -70.9547 -14.4163 -410.98 -303.678 -717.303 -210.002 -201.414 194.581 -283.381 711.202
7408 1 -14.5169 -69.4175 -14.1423 312.584 955.118 1029.42 75.2648 155.118 -316.808 -751.121 925.418
2409 2 -23.3633 -66.2808 -17.9695 -432.591 -619.666 -508.13 11.4464 0.280693 -56.5363 -273.868 191.191
2603 2 -19.5747 -60.0271 -19.6165 -515.302 -324.526 -488.512 -82.9319 40.5383 -43.9918 -269.811 251.736
4897 1 -20.1377 -65.8735 -18.774 473.35 877.499 892.163 112.572 261.929 502.065 -766.377 1081.45
2403 1 -22.2994 -65.9045 -16.8655 829.99 606.918 766.758 161.974 104.95 -10.385 -774.191 389.523
4905 2 -18.6053 -65.8095 -18.3928 -320.739 -511.803 -602.773 -42.3802 133.132 -166.005 -279.221 450.994
2406 2 -20.9623 -65.2645 -17.5294 -333.786 -498.967 -378.619 -76.6319 -196.708 -25.5064 -276.068 396.914
2507 2 -20.4465 -65.0784 -20.1091 -495.635 -531.002 -536.607 -23.6966 -49.8352 -61.5704 -276.569 148.285
11 2 -24.5723 -65.1701 -20.0223 -449.045 -415.181 -444.007 -22.6013 40.8083 -139.253 -272.413 256.328
2412 2 -22.9767 -64.8981 -15.8159 -424.684 -418.617 -544.842 -81.0803 -107.022 134.575 -269.74 351.594
2506 2 -18.4598 -64.1625 -15.3782 -468.768 -389.126 -347.739 -31.9334 -252.247 82.3678 -268.703 475.027
2501 2 -20.9986 -63.6982 -14.6649 -490.664 -465.994 -721.154 -122.565 -4.96269 27.1339 -266.936 326.757
2 1 -22.491 -63.5352 -15.1152 659.43 717.139 1155.71 122.299 99.889 -172.337 -795.838 620.397
7 2 -24.006 -62.5971 -20.4607 -480.901 -484.194 -520.771 48.8574 98.1898 77.3953 -259.685 235.636
2503 2 -19.5934 -62.6569 -19.6857 -551.516 -368.112 -483.862 38.9636 -6.49037 61.0486 -274.319 204.127
8 2 -22.6249 -62.4031 -16.2847 -493.132 -437.178 -319.831 -60.033 -40.4106 -147.096 -263.6 322.629
9 2 -23.0203 -61.1765 -18.5307 -445.251 -496.269 -699.192 -61.9725 -77.1172 62.1731 -270.175 308.371
6 2 -20.5782 -61.3642 -17.6258 -198.222 -465.352 -526.386 -8.99601 -178.453 12.704 -266.848 433.187
1 1 -24.2447 -61.3581 -19.5008 755.829 572.386 721.12 128.679 -136.586 -8.25735 -811.028 366.518
2497 1 -19.3916 -61.3604 -18.7188 876.359 821.246 1127.73 29.5586 45.172 -123.105 -793.843 366.45
3 1 -22.1349 -61.1935 -17.2326 856.885 834.532 789.585 105.037 10.0151 -60.0457 -802.782 218.496
107 2 -24.3945 -60.1328 -20.4352 -540.566 -648.763 -541.736 10.2181 -48.6504 8.67192 -260.389 138.639
12 2 -22.2816 -59.9029 -16.2818 -581.782 -417.794 -353.87 -84.2364 -64.8685 181.097 -263.453 416.846
29898 2 -25.4824 -65.8835 2.66963 -552.712 -505.473 -710.381 13.7306 -305.04 246.523 -245.726 704.679
2505 2 -17.9033 -61.5497 -18.0654 -273.754 -420.28 -512.57 -112.218 148.367 -12.7318 -267.975 384.465
4902 2 -16.1595 -66.3187 -19.2198 -374.997 -566.864 -257.907 -47.8559 -229.626 -117.001 -285.725 528.311
4908 2 -16.8021 -65.8702 -16.5838 -454.527 -448.943 -423.749 -24.0214 -117.941 115.435 -277.054 290.248
7404 2 -12.5606 -65.5392 -17.232 -318.078 -265.833 -122.663 124.419 154.301 294.044 -272.851 638.718
5003 2 -14.1592 -65.3449 -20.6038 -328.559 -372.113 -576.245 197.08 -74.9247 -43.1961 -285.564 437.513
7493 2 -10.9125 -64.5117 -15.2011 28.066 -377.87 -393.521 123.032 306.946 101.96 -263.055 728.443
5002 2 -13.539 -64.3871 -15.0295 -251.294 -462.167 -230.036 -50.9141 -278.486 87.8747 -263.118 559.472
4994 1 -12.3114 -64.3897 -16.0371 905.187 752.274 1256.95 -30.1871 164.383 39.3947 -803.564 537.926
4997 2 -16.0966 -64.4612 -14.5356 -367.888 -563.846 -675.383 -0.25405 72.3038 3.61676 -263.012 297.354
2498 1 -16.973 -64.4802 -15.8052 720.96 708.091 644.241 -36.911 -63.6677 -167.504 -798.367 324.784
2504 2 -16.4572 -63.3454 -16.8274 -513.169 -288.884 -505.895 59.2646 -54.2531 -75.8699 -261.935 292.166
5000 2 -12.2599 -62.9393 -16.7577 -532.736 -285.919 -695.003 13.4309 15.8729 -18.4396 -254.928 360.023
4999 2 -13.5885 -62.8194 -19.9299 -469.376 -334.198 -661.963 92.3419 40.0247 88.1639 -272.183 367.562
2499 1 -16.4834 -61.8302 -17.411 756.697 728.515 967.269 3.69045 76.1792 -189.075 -807.407 419.246
2502 2 -15.3789 -61.6362 -18.5857 -532.553 -482.094 -494.165 57.5247 -121.965 24.3306 -262.451 241.686
4995 1 -11.9836 -61.3767 -16.9334 828.957 716.651 965.828 -95.4663 44.572 -170.409 -813.547 408.824
4993 1 -14.0069 -61.414 -19.3272 829.518 754.148 961.764 -110.92 166.42 -228.944 -804.164 557.117
5001 2 -12.9176 -60.9617 -18.2074 -352.004 -634.724 -258.102 57.1976 202.696 92.8792 -256.384 523.686
2508 2 -16.2267 -60.8373 -16.232 -495.97 -350.245 -539.447 -87.7817 -143.304 101.361 -261.335 380.8
5004 2 -12.315 -60.5862 -15.6167 -492.062 -224.737 -543.841 20.7105 48.8148 141.247 -260.476 395.314
7505 2 -10.7193 -64.6434 -6.84238 -291.69 -858.8 -187.345 -103.751 219.401 101.099 -235.248 773.979
5033 2 -16.1147 -64.6322 5.90302 -396.056 -814.125 -365.096 158.889 199.202 -83.1257 -223.48 635.762
4906 2 -18.5559 -70.2467 -13.9581 205.131 -551.578 -985.341 -219.512 -0.14104 73.9999 -276.295 1118.02
4915 2 -19.3832 -67.8564 -13.9187 -438.381 -368.501 -207.439 57.8818 -54.2031 277.707 -287.416 540.655
4913 2 -20.9905 -69.7555 -7.3178 -34.5672 -933.605 -177.698 83.9073 279.784 -31.6203 -230.377 979.302
2422 2 -23.6184 -68.8393 -7.87722 140.601 -358.173 -672.461 5.29375 -120.825 -37.585 -266.325 743.256
2414 1 -22.0564 -68.7619 -8.102 690.622 1175.18 811.721 -99.5113 36.1398 52.0848 -806.101 482.229
2328 2 -21.8591 -68.4269 -9.64292 -575.568 -647.278 -166.7 -99.254 38.0621 -333.254 -255.076 754.128
2419 2 -25.0235 -67.7758 -13.5931 -355.482 -389.478 -110.167 29.473 75.6011 206.511 -282.452 466.227
2421 2 -23.3035 -67.0662 -11.6874 -321.156 -502.668 -182.24 -58.5314 257.064 -14.9611 -265.2 535.401
2418 2 -20.7396 -67.1059 -11.7359 -434.577 -534.271 -264.516 -23.2805 -304.24 71.3145 -262.224 591.931
2415 1 -21.9903 -67.1861 -10.689 1017.95 1038.41 844.545 2.96732 225.633 -85.0996 -806.144 456.638
2413 1 -24.7068 -66.7378 -12.3699 829.594 925.066 840.677 103.688 -64.9251 -11.0104 -807.476 231.177
4909 1 -19.4726 -66.8013 -12.6704 837.66 699.609 855.697 22.0438 -16.3123 -81.0706 -795.472 209.396
2420 2 -21.1677 -67.6892 -7.24095 13.7858 -1147.63 -407.193 52.9346 162.158 37.5463 -230.758 1062.4
2428 1 -25.1533 -68.9223 -7.21858 1100.79 1155.17 913.804 37.9034 -25.6973 -59.796 -799.001 255.162
4918 2 -18.5453 -68.6429 -7.234 -220.103 -396.39 -674.502 -20.9204 -193.961 42.4676 -274.492 526.344
4917 2 -18.2227 -66.807 -11.69 -449.829 -547.348 -149.709 49.7267 203.461 192.803 -265.74 609.898
7409 2 -16.0079 -69.6568 -7.71792 -20.9328 -992.951 -417.106 -31.1751 95.7247 -19.4604 -244.76 865.001
7414 2 -13.3696 -68.8005 -7.8797 4.53365 -441.169 -633.509 18.3969 -128.341 46.4888 -271.82 615.048
7406 1 -11.8162 -68.6711 -8.05801 410.222 1281.57 880.736 10.1906 -209.962 -24.8013 -799.485 839.678
4910 1 -17.1577 -68.6008 -8.02515 620.119 1147.57 830.363 151.507 95.2243 125.025 -784.419 595.376
7411 2 -14.458 -68.563 -12.8168 -483.444 -172.601 -564.757 -40.5858 62.037 391.84 -271.894 778.211
4824 2 -17.4958 -68.1687 -9.52662 -639.935 -485.367 -321.002 -95.0533 -28.089 -173.156 -263.382 442.418
7320 2 -11.3886 -68.3116 -9.56795 -511.492 -504.884 -412.087 45.0087 -199.177 -255.484 -255.376 574.609
4916 2 -15.9083 -67.556 -7.56358 128.463 -1020.39 -515.638 24.8087 3.05774 25.603 -235.778 999.298
7405 1 -14.3758 -67.1774 -11.9436 638.071 998.878 1002.24 41.0332 -8.45992 -306.847 -801.904 647.406
7413 2 -13.017 -67.1093 -11.1753 -73.1481 -591.929 -429.74 38.313 108.892 149.075 -262.702 563.865
7407 1 -11.4927 -66.9793 -10.4497 872.859 1340.85 779.833 16.8191 221.891 30.9597 -808.782 650.107
4914 2 -15.6853 -67.0586 -11.0359 -236.93 -535.047 -461.529 -92.6961 -174.047 87.0881 -267.039 460.184
4911 1 -17.1714 -66.8884 -10.419 1059.56 1094.36 752.073 45.2944 170.639 106.916 -798.619 484.002
7420 1 -14.8249 -68.711 -7.16933 425.395 1213.52 1097.94 -79.6603 -27.1035 -105.256 -801.216 773.235
7412 2 -10.9291 -67.4524 -7.32682 42.6628 -953.936 -646.249 139.222 215.832 78.0883 -225.915 998.715
9905 2 -10.8306 -69.6103 -7.22942 -109.633 -858.723 -416.164 104.44 284.556 196.384 -235.065 903.779
7529 2 -10.693 -64.4986 6.85858 -235.708 -656.31 -395.375 -143.06 175.318 -29.9549 -230.983 539.947
2512 1 -19.522 -63.9953 -14.1282 706.436 776.853 1147.56 119.241 -68.0573 -152.25 -797.621 542.75
10 2 -23.5017 -63.2706 -13.8854 -118.249 -597.323 -498.591 -52.6762 -165.618 70.8673 -260.195 545.563
2424 2 -21.8789 -66.0362 -9.59893 -519.185 -652.916 -283.561 87.9768 59.1709 269.588 -252.824 597.219
2519 2 -19.5805 -65.3506 -13.2825 -521.951 -406.486 -573.546 61.5821 -71.4272 42.4275 -269.838 232.453
23 2 -24.6913 -65.2755 -12.9971 -561.52 -504.542 -601.214 -150.58 81.8437 44.1523 -260.083 317.884
22 2 -23.442 -65.2341 -7.70749 -371.675 -517.263 -502.789 35.0329 -175.895 -1.69769 -248.4 340.303
14 1 -22.0054 -64.9208 -8.3981 1045.02 1147.52 999.053 158.143 125.632 -125.844 -836.887 432.687
16 1 -24.9955 -63.7956 -13.4883 1006.95 741.25 939.171 -7.92971 26.0095 -85.892 -805.987 285.536
20 2 -21.9746 -63.4741 -9.13993 -524.832 -102.071 -378.674 -34.0085 -123.345 -179.812 -252.072 533.299
2515 2 -19.2659 -62.6884 -13.2222 -602.918 -209.232 -468.836 -133.693 -144.397 243.286 -259.833 643.365
18 2 -21.0007 -62.1107 -11.2765 -495.213 -518.025 -395.281 39.2487 -253.222 -4.58627 -255.933 458.077
21 2 -23.5746 -62.1209 -10.7158 -584.761 -533.838 -554.08 -66.8645 10.6988 75.3757 -262.696 181.032
2517 2 -18.5276 -62.0761 -10.8207 -489.92 -527.976 -445.829 -115.035 84.8298 -43.4662 -255.247 268.376
15 1 -22.1358 -62.1523 -10.0988 764.474 1054.56 1150.55 110.59 49.6134 -119.324 -821.917 456.069
2509 1 -19.6138 -61.747 -11.9358 856.235 884.817 867.406 -49.8247 1.55947 -106.23 -813.39 204.772
13 1 -25.051 -61.7873 -11.1682 827.574 1101.87 860.812 97.4006 -0.0354755 -183.3 -820.413 443.262
2615 2 -19.5432 -60.236 -12.5057 -525.7 -432.372 -568.004 48.684 -36.5761 32.1357 -266.476 169.322
24 2 -21.8666 -60.7242 -9.31342 -482.338 49.8132 -482.848 41.2586 -12.516 184.883 -249.775 625.762
119 2 -25.0952 -60.3131 -11.8811 -490.751 -253.392 -371.001 -6.95262 -80.6634 -141.625 -254.862 349.418
2513 2 -20.8958 -64.8245 -7.23564 -274.217 -753.192 -58.5348 -115.75 247.491 101.821 -242.745 796.426
19 2 -25.5236 -62.8815 -12.2498 -602.15 -348.407 -318.958 -22.1723 -28.8133 222.269 -256.027 474.237
131 2 -24.757 -60.7382 -7.0633 -699.131 -336.404 -595.434 58.7217 -192.307 -100.94 -244.228 506.525
5015 2 -14.452 -65.9411 -13.0464 -449.866 32.0729 -403.739 -40.2289 5.701 -146.272 -265.852 530.378
7416 2 -11.4673 -65.6742 -9.41275 -476.619 -298.552 -329.386 71.9194 110.493 533.579 -243.51 966.143
4920 2 -17.2634 -65.6205 -9.37689 -589.642 -431.067 -330.3 73.0079 -88.6839 189.753 -261.891 445.963
5008 1 -14.6491 -64.4774 -13.7597 976.238 1105.78 1058.3 -8.28301 -107.291 -115.283 -796.107 295.796
5014 2 -13.1805 -65.171 -7.54353 -416.873 -492.235 -443.267 130.905 -255.171 33.3338 -240.735 504.446
2510 1 -17.123 -64.6789 -8.12371 957.82 854.411 729.304 -143.156 52.9491 -230.127 -843.461 517.735
5009 2 -15.7312 -64.6841 -7.4092 -695.573 -748.572 -402.075 53.0581 151.572 135.861 -239.471 487.081
5006 1 -11.758 -64.6838 -8.13856 898.216 1285.33 1327.73 22.0908 92.8873 -328.404 -845.267 720.391
2516 2 -17.4351 -63.1743 -8.61712 -656.297 -354.868 -547.83 -24.9002 27.9225 46.7859 -247.416 284.069
5011 2 -14.6311 -63.2163 -12.7533 -465.553 -130.58 -194.283 -62.7007 -116.515 349.143 -263.786 716.345
5012 2 -11.7899 -63.2113 -8.87585 -438.657 -151.285 -373.647 31.1246 -20.3199 -252.509 -248.411 513.376
2514 2 -15.9023 -62.3469 -10.501 -352.052 -475.267 -474.711 -50.0435 -129.321 187.603 -258.894 422.355
5010 2 -10.8237 -62.5033 -11.2973 -372.757 -529.156 -205.228 -20.9661 -218.964 130.864 -248.067 524.651
5013 2 -13.2946 -62.1646 -10.7089 -667.015 -561.079 -634.728 32.0972 53.593 129.852 -253.585 266.715
5005 1 -14.6807 -62.1291 -11.4867 753.246 822.339 1159.66 -11.8923 -2.03957 -106.573 -818.762 419.971
2511 1 -17.3198 -62.0625 -9.74256 1100.29 749.518 914.803 -9.12844 24.7464 -170.178 -822.853 425.855
5007 1 -11.8862 -62.1059 -10.0695 649.901 1176.26 1186.09 -11.5702 -197.468 -197.898 -833.735 719.163
5111 2 -14.8259 -60.7013 -12.2032 -612.473 -532.165 -606.444 -19.1575 47.4885 29.0275 -252.948 128.046
5016 2 -11.5928 -60.5315 -9.69934 -527.116 30.7732 -564.935 -36.3932 -7.78696 100.776 -244.117 606.953
2520 2 -17.3409 -60.5343 -9.23264 -550.298 -187.489 -512.667 -58.7022 -94.6373 167.647 -257.04 490.833
5029 1 -14.509 -61.6084 2.73135 846.395 1268.43 799.617 -195.76 124.132 78.8385 -841.327 616.346
4924 1 -19.978 -68.6734 -6.61783 803.208 1133.92 905.456 -111.268 177.623 -68.1428 -804.613 481.385
2431 2 -24.8434 -68.638 -5.66535 -791.944 -383.349 -307.401 73.2352 38.3702 281.347 -242.686 679.504
4927 2 -19.8296 -68.3938 -5.01203 -692.92 -462.042 -60.1538 85.9671 16.3697 298.233 -243.11 772.923
2432 2 -23.0483 -67.9588 -1.10597 -623.531 -334.129 72.1064 187.813 -452.758 -258.601 -252.977 1134.8
2433 2 -23.669 -67.4825 -3.56345 -402.037 -684.402 -294.078 -94.164 120.65 44.2788 -241.628 444.995
2425 1 -24.8788 -67.3957 -4.64704 1221.02 1388.58 642.24 92.8752 105.224 -393.797 -842.974 992.153
4929 2 -18.389 -67.3648 -2.98787 -395.738 -602.584 -217.868 -146.995 287.974 -76.2148 -239.855 665.02
2430 2 -21.0294 -67.363 -2.97578 -311.171 -618.607 -337.077 175.926 -303.639 -118.148 -245.078 706.074
4921 1 -19.7338 -67.2083 -3.90955 1092.21 1250.19 789.252 -1.67597 233.074 -291.516 -839.481 763.234
2427 1 -22.5549 -67.1163 -2.47212 1326.17 1017.76 772.303 22.2939 193.076 -14.291 -841.044 587.372
7332 2 -12.0517 -70.6204 -1.68521 -609.729 -223.712 -447.064 100.723 71.8593 -184.865 -123.885 511.008
7418 1 -12.3843 -69.6211 -0.617255 1507.97 956.002 1130.98 5.50901 33.8393 293.555 -937.287 707.637
4928 2 -16.2223 -68.1821 -1.25492 -346.543 -353.409 -173.322 -134.624 247.097 -245.153 -234.525 670.137
7423 2 -14.5176 -68.4527 -5.60489 -619.043 -442.531 -168.44 187.85 94.5943 389.584 -242.38 861.798
7424 2 -12.3365 -68.065 -1.104 -731.95 -445.655 -501.812 -46.6766 62.3302 -179.918 -211.778 429.353
4926 2 -15.9199 -67.578 -3.67828 -634.633 -720.338 -553.262 107.268 -93.2702 53.1679 -231.824 300.064
4923 1 -16.8702 -67.2737 -2.44124 1117.8 1117 779.773 -173.205 269.105 -67.122 -857.341 659.365
7425 2 -13.3626 -67.1625 -3.42777 -482.291 -821.055 -238.163 13.3799 40.6435 143.744 -235.674 569.685
7417 1 -14.5585 -67.308 -4.43765 985.721 1623.94 550.01 -15.2577 192.487 -374.927 -853.288 1186.94
7419 1 -12.2299 -66.9754 -2.27384 1051.16 1388.53 996.215 -145.698 41.0081 -164.024 -882.423 533.681
7422 2 -10.7643 -67.038 -2.96383 -286.99 -804.076 -413.651 181.308 -199.265 54.1585 -222.771 666.68
7426 2 -14.0726 -69.6764 -0.347739 28.7928 -609.169 -648.24 -154.132 83.5352 -141.039 -197.9 765.067
2518 2 -18.2439 -64.9829 -7.01067 -488.059 -612.276 -349.91 97.9354 -228.648 119.295 -244.675 529.135
2531 2 -19.6981 -65.8979 -4.9058 -538.333 -311.8 119.904 1.31031 -112.557 -242.626 -256.083 741.685
35 2 -24.6824 -66.0274 -5.56694 -625.389 -191.225 -145.103 38.7326 -159.111 -199.092 -246.097 640.322
2436 2 -22.6254 -65.5395 -2.24465 -709.982 -376.688 -518.875 55.5487 -123.572 -84.3905 -249.794 400.43
2543 2 -20.0617 -65.3322 -0.307852 -591.617 -717.881 -436.944 69.7357 -73.4499 -159.078 -239.164 407.538
28 1 -24.7022 -64.9326 -6.77731 1117.32 998.964 844.149 42.2214 199.78 -65.7598 -849.29 440.857
2524 1 -19.608 -64.8146 -6.1552 1416.62 1016.51 970.524 -29.7463 252.273 -292.866 -835.427 794.663
2536 1 -19.8121 -63.8294 -0.815465 1081.57 977.88 882.28 -83.1116 -19.5047 96.1917 -828.508 281.829
26 1 -22.5967 -63.9442 -2.15449 906.177 917.434 997.81 -158.666 118.015 40.1117 -834.158 360.036
2530 2 -18.4666 -63.7721 -1.68839 -17.7455 -507.79 -471.379 -53.407 -94.8387 54.8853 -252.537 517.884
2525 2 -21.2627 -63.4819 -1.45854 -279.678 -703.222 -546.398 98.2006 -34.2101 118.032 -250.818 460.215
34 2 -23.9014 -63.5015 -1.25298 -552.846 -652.7 -648.878 -73.3615 -80.7714 116.576 -241.633 293.413
31 2 -24.5606 -63.4022 -6.26337 -686.253 -79.3239 -436.991 -56.2881 -115.195 71.944 -243.784 586.56
2527 2 -19.5594 -63.2807 -5.66112 -718.695 -26.8983 -527.92 76.6345 -35.357 56.6944 -242.949 643.438
32 2 -22.7063 -63.0716 -3.50513 -664.396 -180.251 -604.431 -15.1779 -61.1777 -70.4217 -240.213 485.548
25 1 -24.6668 -61.8146 -5.88089 1011.81 1168.52 665.934 15.3128 76.948 -49.1571 -841.184 473.396
2521 1 -19.4943 -61.7075 -5.21116 1199.49 1012.59 928.487 -27.0386 27.719 8.52375 -837.133 249.879
27 1 -22.4131 -61.5032 -3.86142 1058.08 1100.41 773.569 -9.16759 5.06038 40.8789 -835.612 316.424
30 2 -20.8465 -61.4763 -4.30976 -106.138 -659.541 -483.795 -83.8836 -170.421 55.8492 -242.607 597.896
33 2 -23.388 -61.2972 -5.08637 -620.984 -773.931 -463.3 138.244 -33.012 250.723 -243.389 567.065
2627 2 -19.6062 -60.5874 -6.3238 -611.752 -234.809 -499.343 -15.314 18.9736 -81.245 -250.673 365.972
36 2 -22.5761 -60.5494 -2.58189 -642.84 -256.62 -123.291 59.0314 -4.9098 248.685 -256.828 643.814
40 1 -24.9279 -63.9589 -0.207014 943.545 917.983 670.866 -13.6672 291.538 92.9587 -843.287 591.189
2529 2 -18.0681 -61.5546 -4.41629 -468.116 -559.069 -386.18 -3.01154 204.242 40.6124 -250.982 390.587
5022 2 -10.5308 -61.1135 -4.22527 -329.334 -730.357 -559.416 57.0699 -64.6817 47.8716 -242.406 388.183
5027 2 -14.5794 -65.8306 -5.29326 -581.272 -29.7477 -246.076 45.4916 -207.605 -193.346 -238.675 692.332
4932 2 -16.7409 -65.7045 -2.08772 -658.723 -304.279 -490.713 43.6989 -117.243 26.6104 -244.434 378.68
7428 2 -12.3657 -65.3809 -1.88861 -610.87 -155.261 -642.479 27.2677 -48.6255 36.6829 -226.096 486.149
5123 2 -14.1912 -60.67 -6.98917 -579.423 -129.229 -392.673 -133.351 98.2214 -117.669 -245.491 526.597
5020 1 -14.3812 -64.7657 -6.51095 1081.6 892.469 1176.78 -13.0365 59.495 -289.766 -847.806 570.836
2522 1 -16.8407 -64.1197 -1.87474 1115.12 937.551 849.234 -151.693 27.7913 -38.2421 -838.123 361.592
5018 1 -12.1806 -63.8023 -1.59632 754.436 1188.67 1077.38 -126.653 -3.75289 -122.207 -855.382 495.567
5021 2 -15.986 -63.6289 -0.637243 -547.393 -591.638 -565.498 77.9826 79.4556 143.383 -246.461 316.771
5023 2 -14.0053 -63.276 -6.08547 -603.301 -227.943 -526.826 95.0591 -35.7505 125.371 -250.899 442.87
5026 2 -13.4961 -63.1819 -0.934897 -366.499 -639.851 -413.674 56.5882 -140.5 54.6554 -240.514 376.617
2528 2 -16.3985 -63.2005 -3.09747 -588.406 -333.641 -490.227 16.0703 -46.8302 -130.19 -247.464 328.229
5024 2 -11.9293 -62.9473 -2.97536 -504.076 -362.949 -276.208 3.55515 73.9479 -157.269 -238.813 361.006
2523 1 -16.6483 -61.7508 -3.78333 816.001 1114.73 983.107 -103.405 84.3354 -150.629 -833.287 434.428
5017 1 -14.1866 -61.7138 -5.72386 1142.46 1102.71 887.812 -44.6894 63.3181 -201.14 -831.075 442.375
2526 2 -15.6687 -61.5463 -5.09129 -424.41 -554.202 -295.791 31.8225 -174.681 71.408 -242.589 399.947
5019 1 -11.9683 -61.405 -3.53076 837.931 1373.09 703.574 -62.0386 -82.9756 -233.33 -837.693 756.229
5025 2 -13.0621 -61.2195 -4.65503 -427.849 -626.707 -259.153 91.7201 122.709 188.138 -254.678 527.396
2532 2 -16.2818 -60.6653 -2.64082 -533.893 -448.896 -268.583 151.04 63.5713 242.465 -251.753 558.564
5028 2 -12.1101 -60.4733 -2.22652 -521.374 -645.551 -258.35 -20.7515 26.0664 183.543 -252.195 470.805
7517 2 -10.8975 -63.7711 -0.656562 -421.027 -727.22 -579.928 -43.1891 54.7987 -44.6625 -241.296 301.56
4930 2 -19.0881 -69.7 1.64423 -39.2836 -515.25 -557.94 11.8458 344.628 -6.63157 -232.917 778.166
2434 2 -24.8018 -69.6904 0.22595 -22.1689 -563.737 -447.792 109.554 -322.302 -104.132 -246.68 790.012
2459 2 -25.3955 -69.2805 5.26091 -429.868 -602.362 -343.294 78.1616 174.872 144.534 -234.885 474.259
4925 2 -21.962 -69.3768 0.68705 262.997 -387.339 -916.356 -202.606 53.8884 127.993 -248.756 1108.08
4937 2 -20.0089 -69.0528 5.30064 -466.602 -648.924 -363.614 -44.7857 224.656 -13.9774 -226.407 469.722
4943 2 -21.1545 -69.0564 2.93453 -755.947 -524.076 -578.735 -39.5977 -152.948 -56.8167 -230.884 358.672
4936 1 -20.5514 -69.035 1.46994 1176.69 829.616 1069.35 85.6691 30.9066 -208.117 -844.024 499.547
4948 1 -18.7852 -68.9016 6.34443 1058.46 1149.91 849.429 273.576 160.649 -272.96 -862.472 772.432
2446 2 -22.727 -68.9795 5.13103 -241.954 -615.558 -478.609 39.161 -124.762 -8.38799 -226.474 398.345
2426 1 -23.3974 -68.8179 0.210117 1149.57 1051.85 1096.33 11.6967 297.602 -44.1144 -782.35 528.329
2438 1 -21.3114 -68.5568 4.46961 1325.5 1116.46 778.856 96.3547 -12.2694 124.803 -864.55 550.711
2452 1 -24.1309 -68.3757 5.71185 997.314 1611.34 587.535 -59.3102 21.826 -369.823 -875.968 1104.01
2443 2 -24.3783 -67.8291 1.34508 -55.7176 -223.343 -621.448 13.3021 -414.613 69.4168 -291.542 885.448
4939 2 -20.1457 -67.5278 0.993119 -519.888 -418.589 -676.047 266.44 -124.211 15.7569 -241.55 557.195
2444 2 -21.1328 -66.9652 4.36035 -730.016 -410.758 -345.432 122.543 15.0107 -144.637 -232.253 485.32
2441 2 -24.3 -66.9346 5.02981 -453.911 -382.781 -93.8963 -11.8672 -93.3338 23.4309 -167.186 370.493
4836 2 -17.61 -67.8176 2.71643 -607.245 -164.988 -886.096 92.4945 -40.8382 193.723 -221.302 734.798
7432 1 -15.3986 -68.8379 0.0504719 1378.51 1156.31 1248.64 -80.2542 170.847 71.8328 -879.009 399.687
7344 2 -10.8135 -69.224 3.30906 -579.901 -610.159 -129.707 66.8423 -98.9518 -21.4422 -208.635 511.243
4955 2 -17.8216 -70.2438 6.25247 -255.498 -586.439 -529.247 -248.903 -261.171 226.853 -203.462 799.213
4940 2 -17.1795 -70.03 3.69688 -621.997 -685.089 -144.843 28.6557 313.489 -70.365 -226.548 757.564
4934 1 -16.7198 -69.6566 5.19512 1106.15 1263.17 989.532 162.523 62.245 -31.6598 -866.114 387.864
7433 2 -15.1791 -69.5846 5.56102 -52.0583 -481.689 -461.525 242.874 229.493 40.6349 -222.854 718.502
9917 2 -11.3693 -69.6239 0.704128 -245.072 -683.195 -476.534 -37.7867 308.064 -51.1176 -206.342 664.041
7421 2 -16.4214 -69.515 1.10222 -438.206 -438.058 -241.407 32.9775 -356.781 -155.66 -228.479 704.65
4922 1 -17.5841 -69.3885 2.27465 1406.46 906.892 1269.87 15.4293 -68.6873 264.163 -864.256 651.308
7438 2 -12.4094 -69.1529 5.52454 -198.861 -675.113 -597.575 63.788 -111.458 -19.538 -215.893 496.509
7444 1 -13.8524 -68.7027 6.14191 1087.65 1380.91 1067.29 -105.383 103.29 -82.6735 -908.686 422.156
7430 1 -11.1025 -68.6502 4.77252 995.163 1003 1297.73 -116.566 44.1823 225.637 -891.769 537.208
4942 2 -17.5357 -68.2158 5.53166 -378.029 -682.73 -515.194 -284.413 -206.101 195.699 -199.952 744.891
7435 2 -14.7388 -67.563 0.933463 -549.635 -629.113 -538.979 241.089 215.438 44.1052 -218.439 571.599
7436 2 -11.251 -67.1117 4.45775 -640.27 -893.833 -688.934 50.0046 131.809 -211.851 -214.524 498.586
7447 2 -14.117 -67.2243 5.92288 -408.807 -542.832 -294.619 41.7208 -82.4423 75.0236 -148.221 297.999
7437 2 -13.0667 -66.4454 2.67641 -466.831 -531.589 -661.206 16.2304 149.49 -35.0873 -234.109 317.669
4935 1 -17.2533 -66.1823 2.76283 835.603 1120.96 1121.48 -45.9668 28.5618 -207.349 -863.866 468.343
4938 2 -15.7178 -66.0087 2.58969 -534.767 -589.988 -874.567 12.2885 24.1721 -48.8516 -227.625 330.325
48 2 -21.7466 -59.8962 3.80003 -508.404 -479.683 -366.559 -16.0026 -12.5096 262.949 -243.615 474.905
2537 2 -21.1215 -63.8735 6.69337 -613.503 -639.2 -569.123 11.3735 -45.5733 3.75857 -242.167 102.135
2540 2 -17.8343 -62.9521 4.98121 -598.629 -455.424 -566.783 93.3544 -55.7169 52.1238 -230.345 246.11
2437 1 -24.2177 -66.1649 1.7789 940.82 752.198 1150.26 -43.4057 167.543 -79.2379 -819.386 477.127
4933 1 -19.6197 -66.0133 1.07166 1009.63 903.259 924.124 -90.6828 181.078 332.138 -842.003 680.82
2445 2 -22.7779 -66.0573 2.4517 -503.11 -449.148 -611.5 -42.1519 191.483 89.7769 -250.552 400.02
4941 2 -18.0887 -65.7784 1.44479 -544.917 -649.318 -429.336 157.209 155.415 55.6961 -242.103 438.447
2439 1 -21.5352 -65.692 3.39992 1160.57 759.913 914.433 -50.1209 97.5124 -404.491 -857.296 805.849
2442 2 -20.3919 -65.4296 2.34509 -845.704 -656.125 -517.474 -17.3695 -122.285 29.2365 -238.367 360.25
47 2 -24.3714 -65.3117 0.46318 -605.285 -549.329 -582.29 -45.9797 82.8296 -136.213 -249.656 291.478
2542 2 -18.6863 -64.7605 6.51721 -688.026 -716.023 -503.771 -70.2946 68.8018 177.898 -230.455 404.797
2448 2 -21.9093 -64.5216 4.36372 -749.091 -835.927 -614.427 11.2153 19.5982 65.6049 -234.656 227.618
46 2 -23.6278 -64.0005 6.2234 -501.438 -574.387 -474.448 156.064 -201.327 -180.346 -231.855 547.959
38 1 -22.1791 -63.5829 5.59361 1131.75 1069.74 433.889 73.8566 76.7024 -41.1007 -856.938 697.616
2539 2 -19.5698 -63.0636 0.602482 -646.001 -672.466 -236.895 66.4539 74.0239 92.3497 -246.078 483.908
43 2 -24.9161 -62.9642 1.05083 -623.551 -503.318 -273.286 62.7571 4.28214 150.669 -241.729 418.332
44 2 -22.1066 -62.1315 4.93011 -633.355 -727.876 -425.235 59.8582 -87.6099 -97.0479 -240.95 365.992
45 2 -23.2856 -61.7972 2.70996 -250.888 -531.912 -595.954 127.803 12.6807 65.3541 -246.716 404.191
42 2 -20.5751 -62.0557 2.77987 -223.381 -658.333 -470.073 -69.9518 -184.152 85.2428 -241.445 530.053
37 1 -24.811 -61.8331 2.23847 1004.21 844.389 963.766 -147.891 0.843868 116.704 -844.435 356.639
2533 1 -19.2849 -62.0347 1.78825 916.23 1255.72 579.277 -61.5216 -137.999 -197.283 -848.227 726.933
39 1 -21.9031 -61.4671 3.50347 1126.95 1040.41 804.293 -12.0597 91.5094 -20.0348 -842.665 332.323
143 2 -25.1869 -60.4659 1.61851 -635.267 -573.165 -537.649 192.328 -70.3414 -28.3152 -241.717 368.161
2639 2 -19.3264 -60.5868 1.02048 -590.289 -537.084 -342.202 29.1838 -61.4268 -140.288 -234.126 352.272
7434 2 -10.6496 -65.4648 2.55358 -494.623 -666.824 -583.104 39.9699 -92.3876 -95.061 -220.561 282.408
2541 2 -17.9939 -62.1468 2.61361 -803.358 -674.013 -687.161 124.462 -69.334 113.765 -245.473 339.004
5035 2 -14.6361 -62.5272 1.37472 -587.438 -521.307 -377.416 88.8161 24.5171 126.744 -247.083 329.019
5135 2 -14.7483 -60.0816 2.24597 -512.616 -551.739 -403.532 -1.51279 9.96166 -69.7147 -247.25 180.506
4944 2 -17.7452 -65.4181 4.07194 -867.607 -585.05 -421.165 55.7267 -121.435 106.577 -238.279 490.547
5030 1 -12.0137 -64.0345 6.07595 1118.81 1478.9 997.932 166.436 -129.485 -36.2997 -889.16 570.228
5036 2 -11.83 -62.498 5.55819 -570.243 -544.164 -299.964 -5.91397 3.77411 -371.597 -219.927 693.601
5040 2 -11.5067 -60.0812 4.4968 -665.524 -763.398 -540.439 36.5913 45.1648 -4.32355 -232.406 218.313