ITEM: TIMESTEP
340000
ITEM: NUMBER OF ATOMS
29952
ITEM: BOX BOUNDS pp pp pp
-2.5615833775063237e+01 3.5601128117061187e+01
-7.2768712171537942e+01 8.2754006505736669e+01
-2.1035324467156940e+01 3.4903177627851115e+01
ITEM: ATOMS id type x y z v_StrAtomXX v_StrAtomYY v_StrAtomZZ v_StrAtomXY v_StrAtomXZ v_StrAtomYZ c_PEAtom v_VMS
1 1 -24.3661 -68.2583 -19.6211 1011.35 1239.82 969.762 -7.12417 -69.8694 11.7572 -831.734 280.431
2 1 -21.7528 -71.329 -16.0893 915.068 1744.14 864.131 -26.7852 -85.8848 2.85225 -834.261 869.76
3 1 -21.8156 -68.2216 -17.6173 871.197 1541.71 1241.12 -88.3962 72.7465 -68.7212 -839.549 626.004
6 2 -20.4783 -68.2128 -18.4747 -393.197 -637.733 -393.025 0.590843 -248.293 53.789 -238.264 503.457
7 2 -24.4546 -69.7026 -20.3644 -530.032 598.377 -526.503 47.6798 -3.9626 109.263 -252.275 1145.43
8 2 -21.7787 -69.7224 -16.7772 -482.451 805.424 -511.716 -70.7113 85.2573 -188.573 -235.589 1356.71
9 2 -23.0009 -68.2987 -18.7624 -537.92 -655.137 -191.023 -3.22328 319.853 -28.7523 -234.687 695.822
10 2 -22.9693 -71.1711 -15.0273 -552.641 -741.949 -146.989 -91.1417 -203.582 87.7869 -237.878 670.493
12 2 -21.9753 -66.7147 -16.8568 -479.45 672.361 -438.259 -23.5837 -25.1857 285.821 -237.284 1236.76
107 2 -24.4194 -66.7376 -20.2994 -513.809 548.728 -479.123 1.749 22.7337 -135.778 -256.259 1072.47
2497 1 -19.0674 -68.19 -19.3396 983.345 1316.68 1118.5 -55.5952 -156.869 -20.6116 -830.875 410.726
2501 2 -20.4498 -71.3428 -15.1814 -483.092 -752.199 -122.594 80.1749 294.158 43.8969 -236.258 764.227
2503 2 -19.0111 -69.6637 -20.1394 -526.855 513.829 -575.16 40.5274 47.4413 62.7833 -248.63 1076.63
2603 2 -19.1067 -66.7165 -20.1382 -527.385 517.743 -453.698 -88.4813 91.7847 -176.512 -246.029 1078.4
2500 1 -19.1172 -71.2023 -20.7642 731.129 1661.65 863.902 38.3348 -86.095 -163.6 -828.102 931.069
27462 2 -25.5042 -68.2614 -18.441 -699.463 -644.604 -190.278 -6.51223 -149.536 2.97675 -241.677 549.165
2412 2 -21.8144 -72.8486 -16.8043 -523.437 596.135 -472.701 -48.1378 -74.0669 146.916 -248.589 1134.63
11 2 -24.6019 -72.7509 -20.3853 -478.972 645.617 -433.407 -104.009 37.694 -213.207 -263.565 1178.4
2506 2 -17.8685 -71.2449 -14.8265 -453.411 -710.203 -351.158 -33.3059 -244.054 89.5145 -240.896 555.616
2512 1 -19.2512 -71.2686 -14.0159 1087.15 1570.18 1055.79 -43.0696 101.989 33.2219 -828.848 538.085
2507 2 -19.0264 -72.7823 -19.9894 -517.09 859.906 -415.711 -30.6337 -22.3851 -215.713 -238.412 1382.28
2505 2 -17.8764 -68.2211 -18.2864 -496.455 -680.109 -329.482 -24.4687 188.723 -19.1057 -249.215 449.46
2498 1 -16.5833 -71.2641 -15.8156 1020.72 1073.86 1060.29 -162.435 72.5266 28.4385 -832.113 315.671
2499 1 -16.5958 -68.3361 -17.3175 1140.26 1412.65 954.851 128.615 -163.284 53.3495 -817.143 545.185
2502 2 -15.2671 -68.4185 -18.3207 -387.516 -639.43 -92.6707 18.1127 -268.324 -120.454 -247.365 696.545
2504 2 -16.7587 -69.8347 -16.5922 -538.64 399.88 -555.868 -1.15338 63.6252 -72.6698 -253.522 961.913
2508 2 -16.4547 -66.8146 -16.5834 -563.38 677.8 -479.551 34.2062 40.0082 136.417 -252.233 1227.86
4993 1 -14.1285 -68.4116 -19.4614 919.262 1430.99 936.182 122.146 -81.3119 -273.591 -817.112 736.642
4994 1 -11.4647 -71.3686 -16.1003 1017.78 1523.69 967.16 -86.5335 -201.072 -44.2758 -817.538 658.598
4995 1 -11.6109 -68.2858 -17.5428 1027.94 1395.64 938.803 -14.9799 -53.3491 -85.9232 -825.593 455.287
4999 2 -14.2212 -69.8498 -20.1568 -590.82 254.938 -516.977 -2.73678 21.1615 108.308 -253.877 833.585
5000 2 -11.5988 -69.816 -16.7964 -522.669 687.832 -392.427 -86.6479 64.6663 -179.578 -252.012 1206.83
5001 2 -12.7548 -68.2861 -18.647 -566.028 -685.338 -329.75 -29.1711 166.265 17.7706 -248.738 429.75
5002 2 -12.6412 -71.335 -14.9112 -306.374 -620.417 -126.445 -57.8916 -249.767 93.0317 -248.654 640.838
5004 2 -11.7534 -66.8188 -16.7435 -574.754 510.899 -465.941 -22.4946 -14.7557 162.403 -252.852 1074.08
5099 2 -14.1417 -66.8002 -20.3521 -474.027 809.201 -336.654 -12.9268 -34.4942 -288.371 -240.251 1320.15
4997 2 -15.2677 -71.2049 -14.8241 -353.895 -573.86 -265.854 42.6523 249.05 -28.5806 -248.1 519.122
7493 2 -10.0889 -71.4517 -15.2895 -581.769 -740.403 -319.743 -9.63047 139.112 -23.1058 -248.286 441.957
7404 2 -11.5188 -72.8533 -16.8646 -584.201 596.779 -467.122 -27.6188 -41.4392 178.154 -252.552 1171.67
4908 2 -16.5268 -72.7045 -16.5687 -529.02 421.652 -528.498 13.3175 1.35648 109.063 -251.693 969.28
5003 2 -14.2113 -72.7597 -20.3498 -494.584 612.465 -339.166 -13.0384 43.3818 -267.827 -247.211 1139.74
98 1 -21.9003 -65.2092 -15.9791 928.33 1399.8 1084.51 -2.85304 32.1716 53.3687 -839.024 429.783
103 2 -24.5857 -63.7305 -20.4322 -555.84 773.635 -596.514 -78.8513 -137.416 160.991 -244.309 1405.81
104 2 -21.94 -63.7589 -16.8044 -526.971 459.034 -445.624 -46.8597 46.2222 -212.396 -250.28 1023.2
106 2 -23.059 -65.2781 -14.8977 -690.835 -643.892 -303.137 91.5353 -164.293 -92.8768 -236.891 516.047
2597 2 -20.5452 -65.3823 -15.1334 -412.073 -610.856 -290.835 -123.569 300.069 -110.172 -236.663 656.247
2599 2 -19.0199 -63.7807 -20.0899 -600.441 385.548 -606.15 36.6242 107.849 36.6565 -245.994 1010.34
2596 1 -19.1827 -65.1836 -20.8583 938.297 1238.16 843.153 75.0171 -76.1789 -85.0177 -840.572 428.344
97 1 -24.4877 -62.211 -19.6518 971.529 1510.25 1109.89 -111.906 73.303 -43.9515 -822.061 542.499
99 1 -21.9227 -62.3188 -17.6406 1083.46 1301.5 1080.53 25.3842 9.3523 19.9872 -835.069 227.119
102 2 -20.5249 -62.3714 -18.485 -334.227 -670.061 -341.43 -38.9281 -260.9 13.199 -238.848 565.414
105 2 -23.117 -62.402 -18.7624 -438.598 -600.26 -156.844 -21.5258 364.38 -60.0013 -237.926 749.385
108 2 -21.9747 -60.8068 -16.9561 -521.024 696.432 -380.188 38.8746 43.0191 265.246 -250.051 1245.68
2593 1 -19.1321 -62.2612 -19.3152 1011.83 1404.85 1062.12 59.1659 -61.864 29.0535 -830.196 402.181
2699 2 -19.1505 -60.774 -20.0463 -477.955 748.221 -390.225 -97.1879 29.0601 -271.473 -247.764 1286.7
203 2 -24.4624 -60.667 -20.3979 -488.716 592.655 -533.723 100.562 -18.2225 -125.691 -251.798 1139.64
2602 2 -17.9615 -65.369 -15.0145 -636.986 -685.568 -346.816 -6.80704 -188.396 -31.6159 -243.135 458.555
27558 2 -25.5879 -62.0971 -18.4953 -560.348 -660.669 -195.09 49.1227 -170.834 82.8065 -245.032 543.584
2601 2 -17.906 -62.2231 -18.2492 -469.575 -649.485 -341.873 -30.2836 233.012 -20.9392 -246.048 488.468
2594 1 -16.5776 -65.297 -15.8676 995.192 1372.07 986.584 4.69384 -15.6409 69.8067 -828.482 400.962
2600 2 -16.5539 -63.8086 -16.5825 -550.758 555.047 -520.146 -19.5563 12.9395 -145.797 -249.626 1120.41
5090 1 -11.7242 -65.3318 -15.9986 1149.58 1289.81 1025.94 -60.3249 -116.534 56.8586 -828.453 337.117
5095 2 -14.1781 -63.8031 -20.3632 -553.363 512.204 -566.106 54.7244 10.4096 135.97 -249.902 1101.79
5096 2 -11.7979 -63.8616 -16.7477 -565.464 590.107 -456.131 27.6454 0.131958 -190.856 -247.906 1154.35
5098 2 -12.9615 -65.2304 -14.8804 -580.111 -631.17 -200.961 -78.9323 -198.624 132.299 -239.337 596.049
5093 2 -15.4361 -65.203 -14.7193 -743.701 -666.831 -240.59 36.2977 213.359 56.0015 -241.445 608.508
2595 1 -16.5615 -62.318 -17.4024 877.96 1424.22 1021.06 -5.78769 -17.7896 31.0862 -825.979 494.629
2598 2 -15.354 -62.37 -18.4217 -496.465 -579.986 -220.117 30.0188 -239.559 13.2819 -246.787 530.87
2604 2 -16.4959 -60.8153 -16.5369 -507.815 468.39 -441.119 -14.6315 2.26082 221.914 -248.49 1020.15
5089 1 -14.1319 -62.3251 -19.561 958.077 1344.28 1161.24 -54.6892 -131.382 -32.9297 -820.722 419.491
5091 1 -11.6478 -62.349 -17.5775 831.941 1437.45 872.454 77.0842 60.2483 -29.7034 -820.416 612.464
5097 2 -12.8195 -62.3698 -18.6707 -539.61 -644.458 -361.325 -69.103 162.438 -68.7037 -251.883 411.237
5100 2 -11.7458 -60.8513 -16.8423 -595.138 519.373 -436.731 -53.3691 -18.4211 147.098 -251.321 1079.42
5195 2 -14.2945 -60.847 -20.3775 -474.851 724.124 -379.819 -101.079 55.3378 -292.69 -248.332 1276.51
7589 2 -10.3683 -65.3076 -15.1067 -424.238 -657.398 -316.83 25.6248 249.92 16.9223 -243.041 530.239
5092 1 -14.1513 -65.2932 -21.0854 949.844 1365.61 1070.22 -10.0588 181.098 -112.819 -834.781 523.623
2692 1 -19.2442 -59.1993 -20.8753 1137.9 1485.14 1255.62 26.5676 -57.2296 -57.7153 -814.437 339.843
193 1 -24.2546 -56.2227 -19.5147 841.156 1573.99 978.184 -110.962 -149.217 40.6299 -810.278 751.061
194 1 -21.8499 -59.3002 -16.0628 1080.06 1570.21 1046.75 84.9128 -153.563 44.9751 -806.3 596.763
195 1 -21.7752 -56.2067 -17.4724 889.668 1403.92 915.481 -20.7122 170.985 41.5001 -812.846 588.228
198 2 -20.4195 -56.2087 -18.2693 -597.323 -705.608 -329.517 38.419 -146.841 0.271653 -251.945 426.098
199 2 -24.2296 -57.698 -20.4156 -463.079 700.562 -392.348 32.8429 -2.21684 286.555 -246.528 1235.46
200 2 -21.8238 -57.7349 -16.7471 -544.744 723.952 -425.5 29.5337 -15.909 -179.606 -254.016 1254.06
201 2 -22.9973 -56.2728 -18.5866 -527.236 -652.707 -223.731 14.6421 193.134 -21.1662 -254.174 509.734
202 2 -23.0758 -59.363 -14.9484 -312.565 -573.371 29.5236 1.02277 -353.15 -9.92747 -251.337 805.423
204 2 -21.8574 -54.7344 -16.696 -526.317 403.987 -452.662 29.9264 11.0494 124.355 -260.776 922.938
299 2 -24.4031 -54.696 -20.2694 -419.933 569.64 -342.099 -89.561 49.607 -301.416 -257.422 1101.04
2689 1 -19.1394 -56.2081 -19.2494 752.277 1505.92 920.17 -55.1282 -107.107 -10.0583 -817.918 716.572
2693 2 -20.4754 -59.4162 -15.2308 -544.347 -693.857 -425.807 -36.8561 107.163 -10.048 -255.101 304.889
2695 2 -19.1482 -57.7421 -20.0544 -503.566 706.342 -484.524 -2.37906 -52.1176 243.712 -248.707 1275.76
2795 2 -19.0564 -54.7303 -20.0219 -451.308 604.175 -398.498 44.1085 -3.56229 -232.894 -255.396 1108.91
2704 1 -19.3572 -59.4166 -14.1642 883.758 1514 919.483 47.0283 -239.803 17.6639 -824.083 745.691
290 1 -21.8645 -53.2548 -15.9661 971.02 1289.11 981.509 -43.5568 49.6076 -82.8606 -820.756 362.803
2698 2 -17.8908 -59.3374 -14.9069 -366.433 -654.744 -367.661 -36.5136 -250.774 -12.9948 -240.192 525.3
197 2 -25.5977 -59.2275 -14.7383 -596.097 -655.58 -291.855 78.1115 222.232 72.193 -248.914 544.334
27654 2 -25.5353 -56.3711 -18.4793 -452.517 -681.9 -289.297 84.3284 -158.464 -71.8147 -251.215 478.367
2789 2 -20.5442 -53.2003 -15.0299 -452.584 -675.279 -224.166 -27.7681 215.155 -60.2289 -243.965 552.002
293 2 -25.7068 -53.3217 -14.8314 -615.388 -687.058 -370.862 -58.1832 129.548 -48.097 -244.464 387.167
2794 2 -17.9467 -53.4842 -14.817 -637.003 -756.925 -345.882 26.9295 -120.741 -34.1888 -242.809 428.325
2697 2 -17.8941 -56.4309 -18.3202 -821.905 -660.881 -390.667 -65.7442 111.996 -101.956 -247.3 473.536
2690 1 -16.5328 -59.3841 -15.7487 815.397 1393.79 1126.43 127.355 66.9273 -48.7636 -838.485 566.228
2691 1 -16.6481 -56.3496 -17.3429 881.74 1389.73 1117.65 49.3404 -48.5729 -1.93574 -828.774 456.352
2694 2 -15.405 -56.2955 -18.4257 -385.527 -673.151 -168.541 -57.8569 -315.436 -21.0031 -237.978 708.58
2696 2 -16.462 -57.8727 -16.5412 -439.938 672.704 -452.576 -149.097 30.7582 -280.656 -240.619 1248.21
2700 2 -16.5926 -54.9449 -16.4865 -482.6 486.071 -406.166 50.9059 74.3172 221.51 -251.663 1020.62
5185 1 -14.2024 -56.2457 -19.5369 1086.01 1501.82 937.341 42.8561 -82.6164 149.517 -822.209 591.5
5186 1 -11.6852 -59.3903 -16.0043 876.544 1536.01 940.258 -15.343 -148.251 -9.59527 -820.229 681.065
5187 1 -11.668 -56.3441 -17.5596 1016.81 1353 1221.42 20.5155 -29.0604 84.0768 -827.213 333.317
5191 2 -14.3173 -57.7482 -20.3678 -550.412 763.836 -414.986 23.9394 35.5413 169.432 -246.515 1288.11
5192 2 -11.7274 -57.8124 -16.775 -510.652 697.404 -374.337 27.5214 6.75895 -289.1 -248.189 1251.58
5193 2 -12.812 -56.3024 -18.7311 -506.857 -601.213 -145.649 -18.3091 298.616 -48.1296 -246.756 670.02
5194 2 -12.767 -59.3872 -14.8172 -601.554 -681.91 -179.201 29.5278 -112.395 -20.6332 -248.872 510.459
5196 2 -11.7315 -54.8632 -16.7 -520.191 697.718 -349.56 15.0979 8.63095 265.819 -245.936 1231.86
5291 2 -14.3117 -54.7005 -20.1864 -492.285 622.606 -454.072 -45.7448 -19.6305 -188.204 -255.547 1146.97
5189 2 -15.3448 -59.3521 -14.6318 -484.094 -699.646 -232.234 -75.1571 208.404 -16.979 -240.305 558.832
5282 1 -11.6378 -53.3058 -16.0004 1051.95 1590.87 787.81 -62.7194 -103.791 -5.68157 -835.402 739.439
7685 2 -10.2826 -59.4086 -15.2695 -588.359 -672.124 -313.443 19.4103 248.953 56.6202 -245.551 549.822
5290 2 -12.8866 -53.1721 -14.965 -449.644 -726.136 -127.314 -57.9198 -239.146 69.02 -235.987 682.199
5284 1 -14.189 -53.2377 -21.041 723.406 1448.15 1201.34 117.23 23.6242 2.90222 -811.553 670.984
2786 1 -16.6341 -53.4381 -15.6607 804.301 1564.74 859.705 -5.62393 -0.449155 -26.4299 -828.817 735.799
2615 2 -19.2937 -66.9042 -13.3215 -533.532 307.543 -482.685 45.4188 -81.2858 -172.964 -250.577 884.865
16 1 -24.1689 -71.2186 -13.939 1050.4 1554.93 946.399 81.9348 -78.1712 79.0859 -829.566 612.439
13 1 -24.2623 -68.2603 -12.3291 996.672 1458.75 916.816 -101.523 -89.5743 36.3534 -833.907 561.918
14 1 -21.7576 -71.23 -8.80242 1141.45 1581.05 933.849 28.5329 14.5604 19.8714 -826.805 576.085
15 1 -21.8305 -68.2506 -10.2986 1140.56 1454.14 1017.85 -24.527 -107.89 62.0585 -833.666 447.38
18 2 -20.6761 -68.3424 -11.4837 -310.1 -645.031 -180.599 4.38401 -298.337 -47.5874 -234.631 667.975
19 2 -24.0551 -69.7755 -13.0346 -543.239 638.878 -407.259 -11.6873 47.102 204.248 -247.468 1177.86
20 2 -21.6704 -69.7127 -9.52048 -608.479 626.068 -563.896 -77.6214 68.1673 -95.8765 -247.542 1237.19
21 2 -23.2175 -68.2198 -11.1217 -605.689 -708.279 -235.167 10.3354 225.715 -67.4084 -242.292 593.816
22 2 -23.2073 -71.19 -8.03477 -612.242 -753.061 -331.957 10.9447 -190.774 -13.2627 -233.86 497.926
24 2 -21.6853 -66.7043 -9.58844 -602.711 509.937 -431.158 -8.5827 -29.4101 152.269 -241.646 1071.87
119 2 -24.2649 -66.7377 -13.0559 -600.958 443.522 -561.283 -108.6 85.5403 -64.5542 -248.764 1058.73
2509 1 -19.3569 -68.2864 -12.4704 1103.82 1161.81 1017.85 110.867 -49.6138 64.7311 -842.251 269.382
2515 2 -19.4089 -69.7564 -13.2369 -538.992 529.656 -429.875 19.2471 51.3872 192.098 -246.393 1075.66
2513 2 -20.6027 -71.1763 -7.65705 -318.808 -730.93 -87.2033 17.1184 350.415 48.5659 -237.522 833.824
28 1 -24.4211 -71.2992 -7.03125 800.709 1392.47 936.561 -59.5665 30.1009 80.9699 -841.214 566.815
27474 2 -25.7258 -68.2372 -11.6366 -509.217 -658.534 -280.037 -90.4697 -281.598 77.3188 -238.078 624.036
2519 2 -19.3531 -72.7998 -13.2886 -604.304 642.116 -466.886 65.8176 -28.6155 -154.491 -245.086 1219.93
2424 2 -21.7521 -72.8199 -9.45966 -520.813 649.638 -411.592 92.989 50.0833 191.658 -253.841 1182.25
2517 2 -18.0644 -68.2186 -11.5031 -433.868 -660.495 -352.707 42.8908 230.009 32.956 -240.524 493.791
2518 2 -18.0594 -71.2155 -8.05008 -539.916 -757.521 -134.222 5.72854 -206.012 83.3622 -242.848 669.693
5008 1 -13.9246 -71.2407 -13.9477 1053.51 1410.54 1011.69 -9.5134 -17.8026 81.004 -828.755 406.276
2510 1 -16.7971 -71.277 -9.08695 1113.68 1465.02 1048.15 -151.016 35.0664 71.0931 -825.303 487.875
2511 1 -16.7628 -68.272 -10.5447 1017.21 1430.96 1088.15 -91.3436 -93.9314 140.718 -826.105 507.719
2514 2 -15.483 -68.3186 -11.5511 -527.308 -667.947 -245.22 -18.2341 -256.532 46.2515 -247.271 586.401
2516 2 -16.8122 -69.7512 -9.78631 -540.91 522.327 -480.654 35.1403 62.9232 -164.858 -252.019 1080.35
2520 2 -16.815 -66.7619 -9.6904 -548.362 644.328 -399.631 2.70277 -13.5225 170.565 -245.392 1164.08
5005 1 -14.0713 -68.2569 -12.2821 900.918 1572.15 809.985 -7.34159 13.257 -10.7254 -827.4 721.727
5006 1 -11.5125 -71.3274 -8.77255 981.485 1543.71 1111.89 3.33669 34.6848 0.667789 -823.42 513.254
5007 1 -11.6047 -68.1896 -10.3171 984.817 1676.47 987.386 -57.0688 -96.6845 38.3682 -818.438 720.313
5009 2 -15.4885 -71.4596 -8.11027 -382.141 -595.423 -198.357 -28.3144 305.902 -45.9172 -241.269 638.687
5011 2 -13.8848 -69.7771 -13.0216 -536.366 596.936 -229.514 -18.8798 7.19266 324.287 -245.704 1160.81
5012 2 -11.4723 -69.8251 -9.59242 -478.129 894.309 -378.132 -124.666 71.1946 -319.746 -240.222 1457.7
5013 2 -12.9459 -68.1294 -11.1487 -667.512 -732.137 -259.227 9.8418 196.157 24.782 -250.019 561.092
5014 2 -12.9628 -71.3091 -8.01231 -725.654 -655.143 -520.265 -31.2059 -61.5471 -24.7562 -246.884 220.903
5016 2 -11.4114 -66.7446 -9.46838 -575.355 631.621 -383.211 126.222 19.7929 229.295 -251.44 1211.82
5111 2 -14.0313 -66.7401 -13.0534 -531.248 627.349 -457.127 -69.6113 22.0631 -165.684 -243.943 1166.33
5020 1 -14.1853 -71.3895 -7.12638 692.315 1373.02 940.081 104.76 235.436 27.5115 -835.623 746.708
7505 2 -10.3836 -71.3292 -7.61396 -295.905 -656.181 -197.537 -109.435 286.088 -102.961 -244.67 698.702
7416 2 -11.3757 -72.8475 -9.53704 -478.753 603.976 -449.923 -28.5243 -43.5419 208.958 -248.165 1131.83
2608 1 -19.2367 -65.4239 -14.1125 938.069 1429.42 1039.76 24.7994 156.463 63.2207 -833.372 537.657
112 1 -24.2898 -65.3041 -13.8309 1039.67 1241.81 994.307 38.2464 -59.1031 12.3211 -836.821 259.636
110 1 -21.806 -65.2762 -8.7454 908.977 1356.63 832.052 -62.4729 161.172 36.7041 -845.707 578.3
115 2 -24.1664 -63.7831 -13.1097 -594.998 409.496 -567.295 82.2648 80.1945 66.0104 -248.94 1017.16
116 2 -21.7656 -63.7656 -9.50961 -637.574 426.093 -459.009 44.7151 20.9382 -174.738 -242.672 1035.5
118 2 -23.1241 -65.3108 -7.9598 -911.846 -707.184 -380.079 46.3793 -80.4523 -51.7157 -239.835 499.725
2611 2 -19.334 -63.9222 -13.3115 -526.259 627.37 -465.318 -75.0801 1.74743 214.694 -244.243 1191.42
2609 2 -20.5243 -65.3234 -7.74774 -407.333 -664.83 -263.041 -38.0848 295.975 -81.5657 -235.472 641.399
114 2 -20.5795 -62.4483 -11.4646 -435.277 -603.471 -103.059 -21.7389 -294.49 6.8484 -240.037 675.474
117 2 -23.1342 -62.2981 -11.1586 -372.225 -626.013 -168.973 33.6464 307.292 -3.63631 -239.133 666.351
109 1 -24.3462 -62.3739 -12.3306 1012.99 1260.36 1058.78 -55.948 213.94 -54.9803 -831.687 455.777
111 1 -21.7666 -62.3347 -10.3299 1094.61 1429.19 982.502 8.14603 -108.989 96.7675 -836.339 475.341
120 2 -21.6147 -60.7746 -9.61341 -531.736 594.487 -433.312 25.9693 14.2319 150.346 -246.83 1112.5
215 2 -24.3582 -60.8458 -13.0879 -507.635 720.945 -391.59 25.0959 9.83938 -266.279 -243.996 1263.01
2605 1 -19.3326 -62.4307 -12.5225 1012.68 1449.55 1095.68 50.4921 -110.629 -63.1891 -831.151 466.72
2711 2 -19.3931 -60.9417 -13.3844 -500.873 680.719 -336.576 -49.8632 28.0601 -321.896 -246.057 1244.87
2614 2 -18.0159 -65.223 -8.06318 -594.984 -771.636 -185.251 15.2996 -221.253 -71.2162 -235.661 658.972
2613 2 -18.0333 -62.3858 -11.5897 -567.047 -590.264 -343.143 -4.28977 227.44 63.0013 -246.478 472.25
124 1 -24.4411 -65.3281 -7.02894 847.335 1562.97 955.406 109.241 -93.8974 0.751973 -833.075 713.246
5104 1 -14.1369 -65.2132 -13.8103 896.388 1384.2 908.209 -63.261 -46.0601 -27.6604 -832.498 502.995
2606 1 -16.7213 -65.2379 -9.01565 1159.15 1588.97 830.236 123.445 102.524 -40.5075 -834.522 718.664
2612 2 -16.6837 -63.6979 -9.78164 -568.673 687.299 -412.259 -43.9334 -32.2843 -267.882 -241.663 1276.59
5102 1 -11.435 -65.2602 -8.65308 1025.69 1536.78 946.048 -11.111 127.47 29.154 -825.756 599.939
5105 2 -15.4226 -65.2438 -8.01006 -541.718 -700.587 -172.102 -54.7208 247.771 -19.2408 -240.175 644.082
5107 2 -14.0459 -63.7891 -12.9332 -573.353 199.32 -501.661 182.868 41.9061 86.7154 -251.359 821.534
5108 2 -11.2168 -63.7168 -9.36388 -580.984 452.089 -366.009 55.159 -31.0249 -213.713 -251.44 1020
5110 2 -12.8838 -65.2426 -7.98835 -486.742 -673.226 -246.805 79.5024 -281.749 -53.0007 -244.17 634.528
5109 2 -12.8061 -62.463 -11.0375 -227.364 -618.775 -249.37 -36.5833 237.511 -65.1971 -244.176 575.391
2610 2 -15.4414 -62.1946 -11.5832 -380.907 -740.589 -528.925 -103.218 -74.7102 48.5561 -235.938 392.2
2607 1 -16.7488 -62.2392 -10.6529 921.067 1397.64 1149.41 92.7989 -60.1013 -12.4995 -832.688 455.613
2616 2 -16.8007 -60.7467 -9.80006 -547.654 439.336 -406.13 -85.5823 -16.1561 217.925 -249.553 1009.81
5101 1 -13.9581 -62.3676 -12.1859 985.721 1194.24 970.899 -25.3807 184.551 -91.59 -838.427 419.602
5103 1 -11.3599 -62.3528 -10.2486 1150.73 1289.07 927.067 -22.6589 16.095 45.0933 -834.757 329.428
5112 2 -11.4309 -60.8245 -9.50396 -504.905 708.345 -363.47 -70.2888 -41.5931 344.229 -236.731 1302.26
5207 2 -13.9031 -60.8955 -12.9757 -639.166 502.882 -409.629 -190.66 135.366 -186.631 -243.334 1167.62
5116 1 -14.1858 -65.3196 -7.00499 974.563 1526.48 1024.39 2.84311 -58.3912 16.5715 -829.032 539.145
7601 2 -10.3002 -65.4059 -7.48321 -381.451 -719.098 -224.096 -9.77544 244.353 -65.309 -241.399 619.762
5106 2 -10.2245 -62.2712 -11.3767 -471.342 -637.178 -101.52 15.029 -182.224 12.3671 -248.586 571.274
2807 2 -19.4902 -54.9293 -13.3665 -553.73 550.447 -419.833 -23.8787 72.3038 -115.962 -253.898 1070.99
208 1 -24.3009 -59.2795 -13.8425 934.499 1465.69 972.998 -42.8651 -219.827 -23.089 -818.376 644.425
205 1 -24.2012 -56.3405 -12.2994 903.979 1423.47 901.758 20.1259 -31.2445 -34.6173 -824.036 527.989
206 1 -21.6513 -59.3565 -8.75418 855.351 1475.33 833.246 2.53916 -32.6911 114.798 -840.81 664.33
207 1 -21.7059 -56.3375 -10.3249 871.73 1491.12 1041.11 -58.5011 -28.0608 -98.8664 -823.361 591.078
210 2 -20.5375 -56.4884 -11.4005 -558.843 -622.073 -175.598 63.1909 -241.55 -41.2217 -244.16 605.99
211 2 -24.2449 -57.8438 -13.0164 -528.253 419.377 -434.988 38.2202 10.0452 125.622 -258.68 932.924
212 2 -21.6498 -57.7881 -9.33861 -486.587 584.109 -359.627 -47.4756 69.3197 -227.876 -243.114 1097.06
213 2 -22.9949 -56.2747 -11.2587 -721.488 -609.44 -233.81 -0.41379 207.317 -43.3714 -250.116 574.74
214 2 -22.9523 -59.4136 -7.82751 -828.866 -746.262 -273.613 -53.3497 -193.897 33.7648 -236.321 627.702
216 2 -21.607 -54.8017 -9.61558 -542.575 574.485 -478.119 -58.6671 -54.6822 117.996 -245.205 1114.02
311 2 -24.1849 -54.8708 -13.17 -491.759 622.294 -318.141 -101.836 65.515 -290.49 -250.12 1172.6
2701 1 -19.3232 -56.4494 -12.5289 927.138 1460.17 1021.56 -9.68698 -209.982 -48.1091 -815.366 618.229
2705 2 -20.4562 -59.371 -7.70137 -751.46 -755.718 -236.06 61.4281 155.213 67.276 -237.464 604.17
2707 2 -19.4701 -57.9371 -13.315 -515.513 619.76 -387.762 57.4791 94.3211 241.502 -250.237 1171.2
2709 2 -18.0052 -56.3715 -11.695 -565.487 -658.884 -315.681 -17.9311 243.63 -12.3263 -254.587 523.397
304 1 -24.3596 -53.3699 -13.9672 974.69 1387.53 917.219 -12.6528 -1.91241 -136.72 -824.554 504.016
2710 2 -17.9033 -59.2651 -7.85347 -478.57 -694.833 -85.4094 10.475 -228.928 -30.6734 -239.228 668.391
2801 2 -20.5168 -53.2242 -7.87529 -499.142 -673.32 -209.654 0.726488 322.708 -76.3323 -232.524 703.184
5200 1 -13.9868 -59.4023 -13.7801 1001.02 1624.23 833.303 31.1242 13.1059 -58.7639 -832.42 731.316
2702 1 -16.7727 -59.3112 -9.03709 1135.01 1286.21 981.245 -35.2987 -123.926 -38.0642 -833.103 352.011
2703 1 -16.7456 -56.3652 -10.6845 1037.66 1573.2 1060.07 -13.1983 -195.979 24.4487 -814.427 626.771
2706 2 -15.3542 -56.3823 -11.5807 -379.615 -710.358 -372.524 53.1224 -181.596 -64.7939 -243.573 481.434
2708 2 -16.8241 -57.8283 -9.83662 -523.612 616.719 -376.175 60.792 11.0867 -280.157 -252.723 1183.59
2712 2 -16.8079 -54.7571 -9.99968 -553.372 743.239 -423.404 -29.7673 19.2335 166.877 -249.407 1271.57
5197 1 -13.9657 -56.3177 -12.3089 832.197 1479.6 951.105 83.7848 101.961 14.4082 -840.84 639.654
5198 1 -11.4633 -59.3055 -8.59511 771.198 1589.18 1161.04 -10.5873 -59.8277 27.3286 -826.646 717.987
5199 1 -11.4683 -56.3251 -10.3039 943.741 1492.54 1083.22 -3.96741 -113.659 -113.059 -828.079 566.775
5201 2 -15.3571 -59.3356 -8.20314 -532.999 -688.931 -278.185 -67.5357 213.543 -68.6829 -240.862 541.863
5203 2 -13.9355 -57.8368 -13.0775 -625.183 662.287 -516.136 32.9501 30.1887 132.998 -233.962 1260.21
5204 2 -11.3402 -57.8065 -9.41229 -409.221 691.787 -240.771 -11.0918 19.1554 -379.254 -251.28 1219.88
5205 2 -12.7854 -56.3747 -11.2139 -593.083 -687.869 -292.197 -129.219 221.613 -83.4547 -240.476 588.524
5206 2 -12.8274 -59.295 -7.75355 -441.196 -644.616 -345.539 90.3931 -339.288 -75.8577 -242.224 676.102
5208 2 -11.5557 -54.8357 -9.54495 -513.205 638.523 -455.569 -73.2132 -24.5724 196.786 -245.646 1182.15
5303 2 -13.8962 -54.8216 -13.0635 -525.936 683.601 -437.05 -58.6099 -18.5873 -185.121 -244.435 1215.53
5202 2 -10.3131 -56.2242 -11.4527 -592.299 -610.646 -75.7656 -26.8852 -249.909 1.45776 -239.541 682.758
5296 1 -14.0316 -53.2475 -13.7832 1032.36 1502.46 1060.17 52.49 -55.2915 -98.4742 -826.286 505.196
35 2 -24.3721 -72.7845 -6.34759 -471.284 449.225 -420.76 20.4818 -24.2718 -176.519 -251.902 948.622
29 2 -25.6456 -71.3271 -0.654351 -683.909 -717.998 -376.883 14.5846 174.155 -20.0132 -236.891 445.784
2531 2 -19.0596 -72.7956 -6.21745 -555.077 700.794 -445.845 97.0806 -32.9209 -128.729 -245.408 1238.23
2524 1 -19.1316 -71.2401 -6.86331 1155.15 1620.42 795.433 -71.6508 66.4437 -91.7575 -826.506 753.088
25 1 -24.4284 -68.3001 -5.459 1068.48 1349.93 979.421 -61.4564 121.366 -39.8307 -839.942 415.323
26 1 -21.8047 -71.1991 -2.00834 1064.47 1466.49 995.751 -33.247 -24.6592 0.23112 -827.104 446.217
27 1 -21.7379 -68.2055 -3.53503 968.811 1443.23 1090.86 54.2876 100.277 -23.2991 -823.48 471.919
30 2 -20.5167 -68.1987 -4.53919 -637.704 -631.016 -287.357 -33.1794 -214.704 13.5297 -248.05 512.436
31 2 -24.4271 -69.8089 -6.19799 -556.479 600.268 -526.912 25.6261 18.0372 172.623 -239.9 1181.98
32 2 -21.784 -69.6912 -2.74945 -498.116 604.553 -454.272 -7.79187 21.6773 -151.172 -254.809 1113.38
33 2 -23.0603 -68.225 -4.57121 -324.631 -609.04 -147.777 -28.2282 400.073 -8.47394 -236.195 803.272
34 2 -23.1821 -71.2039 -1.10689 -483.351 -659.063 -197.716 26.9955 -268.472 35.4685 -236 620.357
36 2 -21.8081 -66.6789 -2.79366 -505.071 644.905 -445.803 -65.7105 30.6359 184.151 -251.152 1172.73
131 2 -24.5986 -66.8536 -6.29024 -501.463 556.392 -419.991 -25.0679 7.40613 -188.971 -247.931 1071.77
2521 1 -19.1099 -68.2765 -5.33023 963.335 1388.99 949.873 48.9421 -42.4709 -18.3361 -824.149 447.997
2525 2 -20.6268 -71.2696 -0.919563 -570.439 -689.786 -248.53 3.82068 218.46 -7.89354 -243.412 547.442
2527 2 -19.0405 -69.7083 -6.15472 -583.025 548.835 -485.318 -12.6772 -29.9069 135.283 -251.446 1112.71
2627 2 -18.9545 -66.7344 -6.09001 -514.199 636.068 -405.323 -29.5193 13.1405 -248.314 -247.625 1182.3
2530 2 -18.0504 -71.3087 -1.07198 -537.88 -631.345 -189.223 -41.6468 -260.078 32.5763 -246.944 611.713
2536 1 -19.3014 -71.2472 0.0120166 1083.85 1355.08 946.618 24.5549 -136.863 11.444 -824.822 433.606
2436 2 -21.862 -72.7066 -2.81533 -561.64 644.764 -445.503 99.6877 33.4034 217.946 -244.441 1226.56
2529 2 -17.9834 -68.3551 -4.2043 -658.977 -721.284 -386.609 -28.3805 93.1643 -22.5526 -249.818 353.579
4932 2 -16.6122 -72.7297 -2.71542 -534.938 349.081 -482.018 -29.7896 18.0921 119.21 -257.546 885.317
7517 2 -10.2904 -71.2833 -1.18512 -691.615 -765.225 -406.153 0.74073 53.6078 27.1419 -242.57 344.605
2522 1 -16.6939 -71.3065 -1.89645 993.271 1215.68 1025.09 73.1184 125.568 -5.61489 -820.65 326.858
2523 1 -16.6219 -68.3608 -3.41909 916.243 1480.35 942.511 44.1072 -181.559 5.12981 -817.555 639.45
2526 2 -15.4218 -68.3369 -4.58258 -434.112 -755.323 -183.527 14.2922 -209.959 -29.1763 -244.639 617.961
2528 2 -16.5634 -69.8205 -2.62699 -532.24 451.653 -449.259 25.4953 -19.1925 -143.137 -259.236 978.676
2532 2 -16.5237 -66.8037 -2.71675 -537.14 641.169 -404.796 -30.7619 -20.7649 176.515 -246.471 1160.86
5017 1 -14.1621 -68.3705 -5.52925 954.955 1646.63 740.842 -45.2288 104.437 58.2962 -823.058 849.36
5018 1 -11.6577 -71.3069 -1.99928 1034.72 1504.91 913.955 50.9715 -168.585 -5.01647 -832.528 620.953
5019 1 -11.663 -68.3171 -3.59946 799.413 1614.28 940.109 13.0418 -147.854 -6.31983 -827.943 797.1
5023 2 -14.2397 -69.9369 -6.28566 -537.86 590.82 -369.841 59.401 49.2469 207.457 -243.139 1122.27
5024 2 -11.7022 -69.8618 -2.80816 -552.786 616.639 -484.73 7.39867 -14.2528 -169.239 -244.69 1174.44
5025 2 -12.8327 -68.3611 -4.62339 -697.653 -725.846 -303.026 32.561 99.7003 31.4793 -248.893 451.249
5026 2 -12.8909 -71.2389 -0.896354 -139.706 -711.745 -100.536 -26.1918 -318.336 11.6025 -236.133 810.953
5028 2 -11.6614 -66.7968 -2.85008 -479.978 679.588 -410.132 19.3969 5.02019 204.69 -247.975 1181.26
5123 2 -14.2111 -66.8401 -6.28184 -560.303 659.306 -422.716 -17.4192 2.62367 -153.347 -248.776 1187.46
5021 2 -15.5288 -71.3372 -0.68189 -445.264 -610.126 -56.047 11.6868 308.294 15.7653 -247.577 727.412
5027 2 -14.2199 -72.8497 -6.25942 -518.705 449.609 -448.089 -83.693 11.9306 -166.366 -245.276 989.299
27582 2 -25.6175 -62.3314 -4.51306 -662.375 -698.774 -262.825 -0.983077 -135.146 55.37 -238.431 489.389
125 2 -25.6162 -65.2716 -0.526814 -551.488 -662.515 -269.042 -6.77856 232.777 10.747 -243.004 535.258
2620 1 -19.1315 -65.2734 -6.88696 1052.63 1478.32 1041.56 -30.3348 47.2574 27.771 -834.918 444.765
122 1 -21.8217 -65.2115 -1.95418 936.53 1411.59 874.296 89.9242 -8.8278 93.0197 -826.055 556.395
127 2 -24.4314 -63.8241 -6.25149 -579.51 425.011 -551.133 20.2241 26.5162 72.6 -243.301 1000.26
128 2 -21.9597 -63.6775 -2.65337 -546.988 363.079 -550.676 -111.761 36.6145 -106.157 -252.513 952.309
130 2 -23.0704 -65.3205 -0.959277 -519.164 -708.021 -221.627 -19.8046 -173.431 -47.7931 -243.396 527.874
2621 2 -20.5273 -65.1774 -1.02683 -650.407 -679.577 -313.451 -107.112 156.285 -120.595 -245.509 524.922
2623 2 -19.1162 -63.7553 -6.13263 -523.314 458.327 -406.273 0.944453 47.8735 174.322 -248.743 980.035
227 2 -24.4859 -60.9302 -6.33969 -578.99 546.513 -424.915 -12.4278 73.4171 -161.283 -238.208 1100.8
121 1 -24.3829 -62.353 -5.51004 985.508 1235.21 767.365 -40.9354 -6.8007 -11.1419 -845.781 412.248
123 1 -21.9169 -62.3093 -3.51405 1031.82 1133.05 1092.37 97.3079 -103.359 60.6418 -833.582 281.554
126 2 -20.5305 -62.3836 -4.44898 -544.251 -615.102 -384.017 -46.2051 -256.126 -63.3955 -233.84 507.258
129 2 -23.0703 -62.3328 -4.61485 -770.25 -617.444 -308.801 -20.3512 111.745 11.6585 -244.461 452.64
132 2 -21.7944 -60.8015 -2.80739 -549.354 507.048 -447.842 108.445 81.5554 134.378 -248.383 1062.29
2617 1 -19.1797 -62.354 -5.25351 875.805 1323.06 1035.65 96.5807 29.064 56.5306 -843.972 440.68
2723 2 -19.0809 -60.8234 -6.03752 -560.887 638.955 -484.19 21.1417 -62.3665 -196.654 -237.376 1217.58
2632 1 -19.2322 -65.2953 -0.0879235 877.26 1392.06 911.465 -80.1709 -1.67551 -59.1117 -826.562 527.59
2626 2 -17.9703 -65.361 -1.06324 -706.072 -777.694 -444.853 -70.1854 -22.3065 105.327 -244.134 376.333