ITEM: TIMESTEP
1940000
ITEM: NUMBER OF ATOMS
29952
ITEM: BOX BOUNDS pp pp pp
-2.5615833775063237e+01 3.5601128117061187e+01
-1.2593887240308472e+02 1.3592416673728346e+02
-2.1035324467156940e+01 3.4903177627851115e+01
ITEM: ATOMS id type x y z v_StrAtomXX v_StrAtomYY v_StrAtomZZ v_StrAtomXY v_StrAtomXZ v_StrAtomYZ c_PEAtom v_VMS
2400 2 -19.506 -69.7048 -18.4493 250.257 -497.32 -187.246 -263.868 535.912 -101.61 -271.156 1234.78
4901 2 -20.9455 -69.6591 -15.1758 5.50942 -654.678 -439.019 1.65538 196.798 -68.703 -281.541 685.811
4904 2 -18.3848 -69.7193 -15.9048 -112.03 -456.121 -266.748 -453.723 82.2279 -45.0949 -309.723 856.199
4912 1 -19.4699 -69.373 -14.6418 458.597 851.286 1092.37 344.812 62.8692 -45.8336 -739.404 825.737
2494 2 -21.9022 -69.2329 -20.4368 89.3001 -557.388 -8.89738 -91.3033 627.034 -155.113 -267.531 1281.03
2316 2 -21.899 -69.403 -17.6631 -519.872 -426.798 -110.325 -20.5185 -198.497 -152.202 -279.475 572.046
2486 1 -21.0539 -69.0703 -19.0381 1263.51 935.511 1144.38 53.7035 54.2829 -151.87 -758.906 411.567
2410 2 -23.586 -69.1772 -15.5055 264.156 -417.803 -417.605 -233.253 -432.597 -90.623 -282.06 1101.91
2402 1 -22.1029 -69.0407 -16.1284 479.051 826.469 1100.3 180.1 140.894 270.517 -773.472 816.83
2416 1 -25.0406 -68.8555 -14.7435 687.324 1071.03 1345.93 -145.276 -108.994 170.427 -739.035 717.195
2407 2 -23.5559 -67.4713 -20.0792 -634.433 -544.824 -226.147 -81.1781 -11.3767 90.609 -271.514 427.702
4985 2 -20.5795 -67.4935 -19.0734 -506.991 -372.298 -607.688 130.235 -66.5995 -73.4156 -274.254 349.578
2408 2 -21.7479 -67.4676 -16.0564 -328.101 -262.453 -615.669 -89.5988 -10.0387 -116.211 -276.081 413.26
4900 1 -18.0895 -69.6641 -17.6696 943.574 759.692 1148.51 57.6716 -111.61 336.173 -755.761 707.022
4906 2 -18.5383 -70.4299 -13.8399 54.2271 -314.313 -876.886 -325.975 -52.2807 83.4533 -268.586 1003.75
4896 2 -16.173 -73.4098 -17.7284 -327.901 48.0091 -556.395 -23.2301 51.6675 -3.95453 -168.671 537.667
7392 2 -11.8628 -72.6084 -15.3486 166.804 -806.659 -951.271 -75.4761 68.4657 102.049 -261.173 1082.46
4982 1 -15.979 -72.1001 -17.0173 971.017 580.847 1532.97 209.581 -0.0229388 -195.928 -812.14 966.552
7478 1 -10.5957 -71.6986 -15.3786 302.357 250.792 1890.24 -92.585 -99.9251 30.1414 -734.744 1632.27
4812 2 -16.7397 -71.9169 -15.5509 -315.481 -283.621 -607.337 -229.694 -238.811 42.6436 -268.63 655.987
7396 1 -13.1436 -71.684 -15.6055 385.483 154.886 1997.49 -37.3021 125.429 -24.7824 -747.541 1754.05
7481 2 -14.3919 -71.6832 -16.6822 349.185 -153.531 -692.623 -95.37 398.05 -102.582 -273.391 1161.27
7486 2 -11.9155 -70.653 -16.0247 37.1482 -409 -1250.77 -255.264 29.003 41.975 -294.847 1219.21
4990 2 -16.9272 -70.7734 -17.7575 101.128 -80.4902 -513.674 -463.373 254.184 -208.148 -262.367 1125.72
4898 1 -17.272 -70.6439 -14.8041 470.493 775.714 1300.46 306.309 -1.10485 83.1951 -730.671 911.552
7397 2 -15.9863 -69.7505 -14.4495 267.877 -462.274 -566.815 277.497 196.459 -82.3819 -286.463 993.751
7394 1 -11.9933 -68.9192 -15.8258 752.855 464.249 1236.19 50.442 -85.8689 425.383 -746.599 1014.4
7402 2 -13.2444 -68.8365 -14.7971 53.1175 -651.6 -610.765 79.2479 -159.676 41.0462 -281.73 754.918
7400 2 -12.1826 -68.1646 -17.1427 -531.791 -384.232 -648.511 -19.0445 21.4653 -265.25 -281.674 515.911
4903 2 -17.5283 -68.1828 -17.8422 -411.062 -214.327 -641.039 119.149 -65.6525 -116.226 -282.39 482.581
7401 2 -13.5485 -67.2259 -19.2249 -123.326 -546.754 -187.906 136.059 307.482 -116.418 -277.883 732.085
7399 2 -13.7904 -71.0519 -14.2767 -474.083 -111.989 -571.266 -306.056 -245.243 346.289 -264.336 998.468
7408 1 -14.4198 -69.5183 -13.9189 854.092 896.571 985.863 -50.693 146.404 -135.305 -761.628 374.839
5031 1 -11.6769 -61.8403 4.19568 925.651 1009.63 1177.79 11.246 -121.787 57.672 -859.4 322.963
7437 2 -13.1164 -66.49 2.63047 -407.364 -504.054 -615.164 36.4752 285.874 55.2397 -228.677 539.217
2401 1 -24.2567 -66.4155 -19.0301 713.125 1120.92 755.587 206.565 -6.32505 303.669 -781.06 745.356
2409 2 -23.3319 -66.15 -17.7201 -533.953 -563.14 -572.617 -112.795 -42.9554 -108.368 -278.322 283.113
4897 1 -20.0907 -65.9975 -18.8765 576.694 636.359 767.361 -43.944 126.496 405.617 -778.988 758.887
2403 1 -22.1709 -66.0248 -16.7134 763.967 619.57 946.023 -93.3068 -74.6467 -266.982 -774.067 580.48
4905 2 -18.5019 -65.9834 -18.6735 -270.143 -529.662 -564.386 -36.0887 40.9476 -104.09 -272.486 344.976
2406 2 -20.9012 -65.5048 -17.6364 -362.392 -501.532 -463.259 53.2248 -159.349 -170.266 -277.855 432.604
2507 2 -20.2915 -65.1966 -20.2261 -544.804 -503.308 -391.12 102.049 -94.4589 -64.3422 -277.474 298.986
11 2 -24.3677 -65.0709 -19.8439 -414.599 -588.408 -612.007 -20.7518 -30.1595 -54.7433 -275.941 218.814
2412 2 -22.6135 -64.9556 -15.637 -478.534 -170.777 -682.67 -7.87386 -128.679 125.332 -267.183 544.238
2506 2 -18.4664 -64.1351 -15.4848 -467.053 -513.841 -671.261 -51.0724 12.1879 187.165 -270.262 384.315
2501 2 -20.8195 -63.4802 -14.6169 -524.533 -441.087 -645.406 -80.8078 -18.3479 11.2965 -273.363 229.439
2 1 -22.3234 -63.4102 -15.1392 828.851 790.073 1090.17 -39.1452 67.0966 -38.8839 -791.515 320.259
7 2 -24.3463 -62.552 -20.5274 -400.03 -234.685 -430.701 -60.6099 18.3728 190.346 -259.961 392.529
2503 2 -19.6411 -62.6417 -19.841 -475.193 -266.258 -214.752 62.5928 31.4095 264.66 -268.776 530.959
8 2 -22.5652 -62.3818 -16.3059 -488.281 -528.357 -677.127 -0.0608035 52.7763 88.81 -265.44 248.432
9 2 -23.0284 -61.3282 -18.565 -304.049 -494.592 -617.091 -11.7643 154.223 105.118 -255.924 423.76
6 2 -20.5989 -61.3672 -17.7175 -221.141 -370.106 -457.682 -91.6561 -252.693 41.2293 -269.85 514.558
1 1 -24.3453 -61.2818 -19.4963 870.242 818.063 1127.59 164.726 -88.3464 23.8369 -812.582 434.628
2497 1 -19.3253 -61.4654 -18.7554 787.695 781.752 1148.07 76.8526 -73.3973 -69.7464 -799.712 424.881
3 1 -22.1109 -61.1951 -17.2554 806.166 593.861 745.201 128.891 -6.21416 -88.9282 -810.441 330.947
2512 1 -19.3878 -63.9449 -14.215 421.542 838.354 1034.04 100.898 110.102 -218.142 -806.174 709.403
4998 2 -10.3216 -61.211 -17.2977 97.0047 -498.695 -426.736 114.013 -292.986 -84.5613 -264.742 796.957
2505 2 -17.8912 -61.6561 -18.1435 -370.842 -538.79 -669.476 82.5698 -87.9293 136.124 -271.229 408.009
7395 1 -12.2587 -66.9802 -18.223 849.505 1011.72 912.455 29.7669 19.8677 600.366 -783.881 1051.3
7398 2 -10.9004 -67.1044 -19.1273 -6.85943 -757.943 -436.435 -122.487 -279.035 -107.347 -265.697 859.753
4899 1 -17.1736 -66.6187 -17.9789 557.008 753.425 1132.09 -58.4671 122.953 42.1273 -775.423 563.268
7393 1 -14.7751 -66.5699 -20.0116 554.459 1279.07 754.399 34.5732 130.035 308.655 -770.655 871.937
4902 2 -15.9483 -66.3775 -18.9963 -430.475 -545.465 -529.668 55.2893 -147.504 -159.684 -275.661 403.231
4908 2 -16.8888 -65.8957 -16.5839 -408.885 -203.108 -453.116 55.8401 50.5434 153.56 -278.728 375.717
7404 2 -12.3197 -65.646 -17.3021 -375.641 -55.8939 -97.145 65.2643 68.9787 360.448 -268.551 712.44
5003 2 -14.2365 -65.0398 -20.4884 -376.855 -81.001 -551.818 164.278 -84.2064 -149.934 -271.721 582.734
7493 2 -10.7338 -64.4643 -15.3995 116.124 -426.871 -409.248 61.577 285.637 -3.69569 -261.941 736.048
5002 2 -13.382 -64.5784 -15.0696 -193.212 -484.383 -347.762 -61.0776 -211.059 116.073 -267.608 498.912
4994 1 -12.2076 -64.3821 -16.1339 951.97 753.653 1258.3 -54.9517 116.97 188.113 -796.648 591.759
4997 2 -15.9849 -64.3547 -14.5931 -169.669 -531.971 -495.866 34.2904 178.24 63.0492 -268.436 479.841
2498 1 -16.9671 -64.4477 -15.8615 656.271 919.094 975.077 58.2215 53.041 -204.579 -786.246 480.718
2504 2 -16.4499 -63.2735 -16.8954 -467.22 -257.722 -486.509 176.044 -143.312 -157.593 -264.245 526.686
5000 2 -12.2835 -62.9457 -16.7923 -478.373 -242.637 -622.376 107.118 -39.0957 -56.8949 -271.289 398.715
4999 2 -13.4756 -62.4629 -20.0093 -481.602 -327.951 -465.411 105.611 21.0212 233.102 -264.416 468.166
2499 1 -16.4552 -61.7841 -17.4893 608.283 790.892 1044.04 18.8434 66.6193 -50.0602 -805.354 406.888
2502 2 -15.2688 -61.4011 -18.5082 -246.392 -400.95 -593.589 131.478 -141.369 -105.597 -266.776 485.838
4995 1 -11.9066 -61.3937 -16.9474 882.932 868.128 1052.46 -111.721 14.5808 32.7557 -798.408 269.762
4993 1 -13.8677 -61.0813 -19.2376 799.051 777.66 879.511 -103.41 -50.7081 40.881 -801.35 231.216
5001 2 -12.7789 -60.7517 -18.1265 -336.056 -538.206 -480.575 -28.334 81.855 -41.129 -270.156 245.194
2508 2 -16.308 -60.7907 -16.2393 -478.478 -354.484 -407.845 -36.4824 -34.3569 212.216 -259.961 392.743
5004 2 -12.2319 -60.5949 -15.5432 -574.291 -347.969 -317.006 -75.8178 -107.71 221.104 -255.129 507.837
7429 1 -14.4481 -66.2448 1.76103 805.065 911.118 1382.68 -223.07 -26.0209 24.3407 -881.12 660.846
4915 2 -19.2848 -67.9694 -13.9315 -488.598 -491.813 -287.231 78.4919 -40.7875 220.753 -284.298 459.212
4913 2 -20.8244 -69.6315 -7.60817 -110.373 -832.204 -158.272 87.5179 286.541 -5.60851 -237.595 870.717
2422 2 -23.5396 -68.9157 -8.02475 -193.524 -367.659 -676.22 -50.8288 -147.602 -65.3985 -268.661 514.98
2414 1 -21.9827 -68.7169 -8.33543 963.306 1130.27 663.541 -31.8601 17.7793 202.187 -790.735 542.601
2328 2 -21.6953 -68.287 -9.81001 -618.49 -654.144 -447.465 -12.2973 -167.907 -138.333 -263.493 423.153
2419 2 -24.8493 -67.8806 -13.4685 -419.605 -268.623 33.8779 63.6146 117.778 356.392 -278.551 771.217
2418 2 -20.622 -66.941 -11.8574 -352.997 -543.211 -401.828 -71.7056 -198.794 71.0116 -261.011 422.36
2415 1 -21.747 -67.0366 -10.7672 980.54 1093.51 658.578 117.797 366.175 170.026 -813.154 826.682
2420 2 -21.1969 -67.5424 -7.38085 -115.465 -913.185 -363.896 170.301 242.122 -9.08505 -233.217 873.511
4918 2 -18.5088 -68.3167 -7.20692 315.777 -376.236 -636.9 -55.3445 -328.426 22.8238 -260.349 1030.32
2421 2 -23.2222 -66.9943 -11.528 23.1381 -490.215 -254.173 -50.7385 253.642 51.1883 -261.455 637.7
4917 2 -18.022 -66.8917 -11.794 -612.05 -585.018 -318.399 103.683 59.632 236.12 -261.021 537.774
4909 1 -19.2483 -66.8994 -12.7612 950.367 872.132 831.411 -44.7514 -62.6365 -286.674 -804.012 524.679
2428 1 -24.94 -68.8235 -7.30819 708.196 1101.1 875.234 10.772 211.965 19.8993 -819.391 502.961
7409 2 -15.9537 -69.6004 -7.78429 194.943 -826.606 -452.173 -12.1565 29.7023 53.4408 -245.005 901.62
7414 2 -13.3035 -68.4954 -8.01782 -83.5182 -404.278 -902.94 90.938 1.80553 -1.20906 -266.678 732.342
7406 1 -11.7092 -68.4946 -8.2118 470.504 1121.71 993.58 -192.526 -278.853 -26.6973 -802.48 838.845
4910 1 -17.0716 -68.4865 -8.04385 747.057 1060.79 1107.69 -58.9675 -51.9926 143.644 -783.851 442.477
7411 2 -14.4735 -68.5998 -12.6461 -598.599 -80.8262 -597.038 -11.8818 91.4887 221.058 -273.853 662.885
4824 2 -17.4539 -68.1246 -9.58706 -566.209 -288.045 -222.644 -9.45944 -36.2572 -231.01 -255.335 513.959
7320 2 -11.3862 -68.1721 -9.7556 -564.264 -428.173 -375.46 55.6715 -95.614 -94.7184 -253.453 303.499
4916 2 -15.8045 -67.4846 -7.7427 -103.609 -981.707 -554.27 10.6898 -74.2966 -22.6692 -245.896 772.575
7405 1 -14.3266 -67.1046 -12.059 990.309 892.028 918.175 50.6081 -5.5023 -282.187 -802.964 504.416
7407 1 -11.5179 -66.8076 -10.6079 606.113 1097.13 574.136 -40.6392 -67.6996 -127.126 -822.023 570.091
9905 2 -10.7925 -69.6647 -7.45297 69.9765 -724.686 -315.827 4.37387 408.419 -26.6739 -225.717 988.109
7412 2 -10.8482 -67.5469 -7.3187 -139.203 -1287.87 -637.588 -130.49 151.045 -77.1395 -230.939 1064.29
4914 2 -15.6142 -66.8899 -11.086 -341.722 -608.003 -403.249 -65.2047 -270.07 48.0337 -256.851 544.792
4911 1 -17.0878 -66.7938 -10.4755 911.734 1259.51 647.35 83.0916 41.2653 -24.6064 -814.226 557.167
7413 2 -12.9021 -66.8993 -11.3099 -463.128 -635.215 -501.479 79.8209 13.481 158.083 -259.608 345.13
7420 1 -14.7108 -68.5974 -7.34717 280.581 1124.72 1017.06 127.835 147.786 -143.024 -797.928 899.556
7529 2 -10.7683 -64.6632 6.78148 -396.508 -697.4 -434.728 -33.345 133.024 83.0561 -229.285 397.006
10 2 -23.4927 -63.1527 -13.9897 -139.233 -511.266 -461.415 -2.80687 -313.641 44.9963 -259.032 650.813
2413 1 -24.6794 -66.8002 -12.2415 1119.97 1067.64 976.793 14.1781 -47.5669 -201.756 -814.644 381.121
19 2 -25.4781 -62.9342 -12.3168 -587.582 -549.075 -532.917 -41.829 29.0816 106.824 -247.661 210.681
2424 2 -21.5512 -65.7884 -9.68415 -453.143 -426.446 -80.9221 58.5763 -4.62349 385.196 -247.845 764.729
2519 2 -19.3137 -65.4177 -13.532 -488.7 -146.893 -564.339 -117.065 61.3949 -184.689 -250.115 550.598
23 2 -24.7574 -65.3344 -13.0136 -498.06 -58.8827 -444.09 -10.1011 49.0827 -184.895 -250.975 531.206
22 2 -23.3181 -65.2029 -7.73433 -401.053 -551.8 -547.628 21.575 -156.127 64.6917 -249.443 330.441
14 1 -21.8339 -64.8974 -8.30766 965.231 1134.41 1102.66 5.587 -3.2658 -132.231 -839.211 277.2
16 1 -24.8943 -63.7791 -13.5366 837.393 1020.32 855.123 0.438128 -27.5312 -284.17 -820.536 524.468
20 2 -21.8208 -63.3788 -8.90917 -603.08 -195.172 -435.591 12.884 -123.069 -200.65 -248.223 541.146
2515 2 -18.9302 -62.9087 -13.0899 -572.497 -453.976 -351.009 -64.7333 -146.12 256.491 -256.35 557.531
18 2 -20.8702 -62.4563 -11.3106 -251.104 -548.606 -240.325 155.121 -336.126 -84.7929 -251.64 724.244
21 2 -23.5002 -62.4374 -10.6328 -267.97 -595.499 -505.966 -50.2596 53.2385 150.64 -252.177 412.462
2517 2 -18.4161 -61.8935 -10.7248 -455.522 -574.009 -487.379 -94.1801 95.2946 -42.3893 -252.919 265.561
15 1 -21.9637 -62.2902 -10.0975 1023.31 987.905 1104.24 30.2175 63.9943 -121.87 -825.797 265.049
2509 1 -19.4835 -61.8643 -11.9598 1101.24 894.163 914.52 -30.0429 15.8831 -113.274 -810.205 284.673
13 1 -24.9191 -61.9682 -11.1727 845.78 1005.36 736.535 229.079 185.459 -250.615 -832.017 709.84
24 2 -21.7665 -60.7214 -9.77127 -585.603 -231.438 -572.67 76.9672 -19.9107 -16.4104 -253.227 375.218
2513 2 -20.7892 -64.8713 -7.11598 -516.004 -811.954 -334.28 -8.76363 91.5562 155.084 -246.179 521.462
131 2 -24.7883 -60.6183 -7.0689 -666.838 -129.681 -560.867 -170.718 -95.0976 -204.855 -239.322 695.202
2518 2 -18.2568 -65.0402 -7.08295 -555.214 -541.409 -395.354 -26.8902 -225.861 143.637 -259.39 490.553
2520 2 -16.8658 -60.5068 -9.22199 -586.609 45.0514 -493.737 -61.3975 -5.56137 145.424 -246.272 651.001
7440 2 -12.1549 -64.8286 4.5273 -649.586 -646.307 -353.938 -112.294 69.9171 72.9536 -228.714 393.587
5008 1 -14.5329 -64.4796 -13.8885 976.128 939.068 919.063 -61.2737 -95.226 -18.4227 -801.636 204.94
5015 2 -14.4279 -65.9237 -13.1621 -595.871 -21.6499 -604.72 -46.4794 63.879 -54.7788 -262.485 602.175
7416 2 -11.4556 -65.5416 -9.66343 -538.372 -335.177 -430.214 15.6129 5.40458 185.656 -252.901 367.739
4920 2 -17.3185 -65.4742 -9.5839 -516.695 -245.204 -58.2918 26.7087 -16.8279 307.557 -260.266 667.946
5014 2 -13.0155 -64.7864 -7.66882 -162.655 -579.233 -491.007 119.963 -238.622 39.9554 -245.534 602.786
2510 1 -17.2133 -64.5766 -8.15428 898.95 1047.37 1006.55 -92.0676 279.124 -36.3597 -821.294 529.87
5009 2 -15.7379 -64.4908 -7.54959 -354.005 -691.685 -449.76 52.6153 73.9038 136.865 -255.159 414.426
5006 1 -11.5797 -64.5428 -8.3414 971.118 1060.05 1149.44 -72.2425 -40.0753 -208.333 -837.432 417.771
2516 2 -17.5377 -63.0425 -8.62259 -544.571 -247.321 -427.714 97.3637 -196.562 -140.631 -245.875 520.536
5011 2 -14.3596 -63.2686 -12.8502 -474.213 -122.317 -137.172 -54.8316 -108.445 335.789 -269.345 708.087
5012 2 -11.4348 -63.0489 -8.97235 -579.855 -394.426 -515.111 83.5235 -111.095 -36.4883 -254.917 297.523
2514 2 -15.8956 -62.4659 -10.7098 -436.076 -554.061 -292.408 -70.6905 -226.925 83.1429 -261.326 491.657
5010 2 -10.7966 -62.1949 -11.4943 -362.096 -547.532 -252.529 146.065 -191.24 -78.0352 -251.334 508.626
5013 2 -13.2576 -62.2643 -10.5785 -171.039 -549.702 -414.145 72.6173 263.617 123.664 -247.976 616.937
5005 1 -14.5877 -62.2096 -11.5839 954.131 980.189 1200.39 -58.6335 113.706 -60.7966 -810.766 339.259
2511 1 -17.1422 -61.9919 -9.80238 902.881 915.88 959.055 109.993 -96.3769 24.8986 -830.177 261.945
5007 1 -11.7148 -62.0557 -10.1314 911.341 878.925 1064 -8.13172 -97.0021 -16.5304 -830.201 241.975
5111 2 -14.664 -60.668 -12.0816 -550.679 -83.4576 -705.744 45.2021 -83.4001 114.735 -257.684 617.478
5016 2 -11.5243 -60.4714 -9.76508 -511.145 -400.027 -666.262 25.8081 13.4885 31.1582 -245.169 243.107
7505 2 -10.4577 -64.7834 -7.21496 -455.186 -783.274 -243.236 -9.80093 274.37 165.048 -236.619 727.977
5123 2 -14.1151 -60.3696 -6.9309 -576.229 -518.825 -629.919 51.7163 -40.5273 -4.34119 -250.41 149.223
4924 1 -20.0536 -68.496 -6.70472 944.331 1117.19 776.035 -103.544 -31.2019 -54.629 -808.79 362.399
2431 2 -24.5939 -68.5071 -5.79223 -721.478 -375.335 -425.309 64.5997 -59.922 267.902 -240.865 586.191
4927 2 -19.9153 -68.2358 -5.15748 -749.299 -337.289 -282.685 122.801 155.863 324.676 -247.631 793.47
2432 2 -22.9991 -67.9097 -1.08561 -587.284 -147.374 -55.0429 148.543 -334.552 -338.748 -258.635 994.427
2433 2 -23.7301 -67.3929 -3.54035 -562.498 -571.921 -118.21 -72.3845 152.019 50.0585 -237.122 542.432
2425 1 -24.8131 -67.2939 -4.73124 1216.87 1316.76 652.648 71.6116 195.694 -314.132 -846.234 900.554
4929 2 -18.3282 -67.3538 -3.06564 100.265 -539.852 -153.579 -176.733 334.015 -57.5039 -238.059 866.035
2430 2 -21.1598 -67.221 -3.09412 -69.3015 -654.454 -215.049 123.351 -484.486 -125.467 -236.051 1037.02
4921 1 -19.7361 -67.0925 -3.99166 1588.35 1238.85 843.29 -18.8789 231.957 -132.436 -835.793 794.963
7332 2 -11.9897 -70.154 -1.94178 -533.059 -200.974 -451.535 85.6948 12.4819 -167.038 -126.937 442.783
7418 1 -12.4591 -69.3174 -0.766647 1406.45 943.462 1248.81 -109.764 96.9442 313.703 -928.798 725.114
4928 2 -16.2121 -68.086 -1.28088 -518.804 -614.047 -166.818 -63.3165 139.528 -170.026 -224.485 568.9
7423 2 -14.3299 -68.3014 -5.82612 -606.827 -458.039 -523.811 146.74 90.2629 330.134 -241.885 657.787
7424 2 -12.3282 -67.7334 -1.14933 -641.031 -590.03 -501.441 112.577 -1.24392 -157.451 -216.397 356.883
4923 1 -16.7641 -67.248 -2.56604 1343.79 1116.44 1015.08 -78.3764 148.174 -63.7086 -867.896 426.003
7425 2 -13.2284 -67.0952 -3.6237 -428.837 -769.646 -30.3756 37.0017 279.887 39.1747 -224.812 808.977
7426 2 -14.0912 -69.4284 -0.491129 -305.588 -677.712 -632.989 60.1283 49.931 -134.12 -209.002 442.859
4926 2 -15.7834 -67.3301 -3.86142 -429.397 -665.331 -149.853 190.898 -323.79 -107.864 -231.645 811.489
7417 1 -14.431 -67.104 -4.76583 1316.18 1307.83 718.325 -158.274 84.1152 -312.171 -855.658 860.95
7422 2 -10.6949 -66.862 -3.15184 -343.596 -670.361 -386.198 8.67919 -222.616 121.591 -224.177 536.584
7419 1 -12.1877 -66.8085 -2.41087 1202.69 1062.57 1051.15 -232.434 -60.2818 -12.6485 -880.198 441.387
2427 1 -22.6134 -66.9745 -2.40437 1360.39 1080.82 886.308 111.598 171.362 81.8341 -845.772 562.068
2531 2 -19.6357 -65.7143 -4.82471 -561.578 -360.499 -31.55 23.6522 -156.373 -231.003 -251.181 670.752
35 2 -24.6796 -65.9392 -5.6443 -613.53 -285.525 -139.79 -12.9579 -157.84 -225.838 -244.414 636.302
2436 2 -22.6013 -65.3833 -2.20391 -729.782 -386.962 -561.012 174.871 10.9333 -181.27 -241.179 528.04
2543 2 -19.9022 -65.397 -0.448334 -596.666 -434.872 -358.212 117.072 -40.4148 -194.647 -239.847 451.816
28 1 -24.6273 -64.8905 -6.91176 944.057 917.61 940.704 118.992 238.974 -154.408 -850.995 534.743
2524 1 -19.52 -64.7156 -6.14197 1070.22 971.788 1069.95 -32.3094 200.379 -84.6594 -832.803 393.384
2536 1 -19.6005 -63.8643 -0.863764 964.953 1111.06 831.184 -97.9548 31.8893 43.646 -842.315 310.383
26 1 -22.4337 -63.7932 -2.11101 955.028 842.915 703.601 -0.00959588 158.241 117.039 -848.184 404.737
2530 2 -18.1954 -63.7854 -1.60145 -488.904 -704.072 -506.006 102.336 -55.1962 4.04971 -245.289 288.993
2525 2 -20.9187 -63.4459 -1.7026 -271.101 -668.786 -607.677 9.44826 -54.5214 61.54 -240.17 397.659
34 2 -23.5404 -63.4669 -1.03819 -500.826 -811.987 -570.769 60.2463 -32.8451 -33.3747 -243.529 312.116
31 2 -24.5134 -63.3797 -6.42058 -660.014 -206.337 -470.294 -51.9314 -81.8769 56.1909 -245.444 439.794
2527 2 -19.4395 -63.2084 -5.54268 -537.015 -134.772 -501.38 -43.1884 -112.474 167.818 -249.172 526.09
32 2 -22.6553 -62.9608 -3.40441 -629.993 -258.794 -604.799 92.1737 -168.849 -77.344 -240.778 507.972
25 1 -24.6033 -61.8104 -5.93956 1007.51 1372.41 693.086 105.807 114.539 -109.645 -837.455 675.1
2521 1 -19.4218 -61.6264 -5.14429 765.438 1212.88 1066.95 6.14835 48.4994 -221.856 -838.14 557.707
27 1 -22.2991 -61.412 -3.97885 768.036 1255.12 759.411 40.3293 159.314 -183.496 -837.333 650.813
30 2 -20.8097 -61.2872 -4.41648 -575.14 -612.515 -562.314 -0.417674 -107.753 72.4423 -247.63 229.384
33 2 -23.2585 -61.2511 -5.25414 -454.812 -612.165 -451.469 137.173 -38.7946 206.985 -243.92 463.454
2627 2 -19.3463 -60.4782 -6.33772 -578.086 -64.1118 -357.27 -66.6405 118.006 -216.566 -244.968 628.679
2529 2 -18.1319 -61.5094 -4.21757 -416.194 -671.518 -527.622 -110.219 51.9113 29.947 -245.306 310.444
40 1 -24.7865 -63.8879 -0.150492 1034.81 911.773 800.225 -50.6874 46.7621 131.852 -837.861 328.218
7434 2 -10.7594 -65.4665 2.34784 -356.95 -700.596 -428.339 -70.5817 -168.596 -46.047 -223.13 453.03
4938 2 -15.7561 -65.9758 2.62481 -411.892 -489.438 -1014.85 166.368 1.14431 -96.8954 -223.563 658.8
5027 2 -14.4137 -65.7218 -5.60354 -590.388 -196.489 -340.23 37.7235 -55.7849 -126.949 -249.258 425.619
4932 2 -16.6023 -65.684 -2.11757 -668.028 -463.151 -628.237 155.186 -40.5061 136.691 -224.539 410.644
7428 2 -12.4237 -65.2528 -2.03561 -568.956 -724.416 -669.581 0.235626 25.6826 -6.55342 -233.563 144.076
5020 1 -14.3651 -64.564 -6.74442 1031.28 1154.79 1118.83 -7.46697 -6.46421 -215.581 -837.527 389.648
2522 1 -16.6857 -64.1027 -1.97222 863.417 971.213 843.873 -131.362 111.492 46.2315 -861.291 331.029
5018 1 -11.9995 -63.7899 -1.82348 852.188 845.197 1076.91 -109.378 -97.283 -4.12973 -852.699 341.252
5021 2 -15.6678 -63.5469 -0.888602 -316.648 -699.68 -289.603 102.424 147.468 107.175 -241.863 537.565
5023 2 -14.0481 -63.0101 -6.22771 -529.01 21.6621 -525.335 186.229 28.7696 158.498 -243.728 695.069
5026 2 -13.0507 -63.1858 -0.703333 -238.169 -763.941 -404.497 -23.9466 -185.335 30.6292 -233.962 569.414
2528 2 -16.4318 -63.4204 -3.38554 -589.86 -304.833 -373.311 30.735 17.0103 -84.4596 -241.734 302.513
5024 2 -12.1688 -62.8559 -3.15558 -541.257 -547.193 -413.853 28.0248 0.0598318 -29.0848 -239.625 148.045
2523 1 -16.6148 -61.8285 -3.83843 908.436 1399.35 869.799 -85.8577 75.6949 -80.1497 -834.013 565.713
5017 1 -14.2317 -61.456 -5.77453 988.062 1122.84 862.431 -123.396 86.105 28.8395 -837.393 348.277
2526 2 -15.688 -61.3746 -5.06398 -421.781 -544.928 -358.368 96.8944 -177.681 -22.3827 -248.377 389.069
5019 1 -12.0487 -61.3078 -3.49359 773.758 1224.04 659.763 -24.4647 45.3889 -70.7567 -846.063 538.583
5025 2 -13.1482 -61.0361 -4.63993 -379.525 -737.169 -329.588 77.4826 115.278 158.291 -240.953 530.386
2532 2 -16.2773 -60.8626 -2.54713 -655.477 -137.027 -192.051 71.1513 3.45257 457.967 -242.939 942.186
7517 2 -10.5105 -63.6775 -1.31896 -360.845 -553.931 -405.488 -69.0558 200.634 -78.4666 -244.493 429.179
5022 2 -10.6265 -61.0379 -4.0962 -730.364 -614.492 -429.476 -79.7661 -29.9453 152.303 -245.662 400.577
7308 2 -10.3656 -70.8507 -14.0179 -698.353 -169.394 -667.062 86.3634 117.071 388.906 -266.324 884.004
4930 2 -19.0311 -69.9576 1.56901 198.992 -397.867 -563.773 -49.466 463.546 16.4521 -223.938 1065.63
2434 2 -24.5894 -69.7398 0.309082 -148.443 -593.047 -444.765 -39.8765 -348.732 -76.2465 -253.086 735.381
2459 2 -25.3683 -69.1797 5.21775 -384.026 -614.723 -428.233 19.7601 156.421 107.461 -227.494 392.676
4925 2 -21.9078 -69.3036 0.775109 -142.79 -441.419 -923.99 -186.454 11.6943 132.122 -254.492 789.453
4937 2 -20.1092 -69.1271 5.44333 -609.497 -471.271 -601.827 -129.129 119.764 -90.8267 -231.699 368.655
4943 2 -20.9707 -69.1557 2.98222 -761.489 -512.722 -655.858 16.8057 -89.6892 -16.1102 -229.531 269.303
4936 1 -20.4631 -69.1256 1.489 1250.9 836.344 1001.45 -33.6043 -126.568 -254.857 -844.045 613.98
4948 1 -18.7783 -68.9932 6.30689 976.193 989.276 730.667 159.126 195.268 -271.158 -858.719 688.912
2446 2 -22.6979 -68.8173 5.02261 -391.361 -703.329 -395.24 16.7425 -173.597 64.4572 -224.445 447.037
2426 1 -23.2774 -68.8544 0.194097 732.172 988.903 1139.29 42.9799 217.447 -35.0204 -781.922 527.453
2438 1 -21.2215 -68.5497 4.45824 1111.46 996.083 799.065 84.1289 -54.6662 104.974 -865.949 371.643
2452 1 -24.0823 -68.2723 5.69313 1048.86 1345.21 791.239 32.3275 55.3629 -199.802 -882.741 602.191
2443 2 -24.3095 -67.8027 1.37741 -241.11 -124.965 -567.106 -149.099 -543.399 122.376 -284.578 1074.75
4939 2 -19.977 -67.6477 1.00662 -689.421 -400.738 -627.075 158.489 -109.515 -46.7608 -244.131 432.577
7432 1 -15.4154 -68.7312 -0.0125007 1103.62 965.179 880.959 -107.654 122.68 -19.7228 -892.391 344.972
4836 2 -17.6849 -67.8997 2.59 -534.252 -25.4852 -899.264 23.337 -73.6297 277.77 -229.362 909.477
7344 2 -10.7597 -69.3951 3.13869 -552.66 -646.902 -269.431 69.2665 -172.084 -83.8546 -209.819 490.02
4955 2 -17.7105 -70.2612 6.24933 -186.8 -712.215 -426.172 -194.972 -211.27 233.269 -204.527 786.626
4940 2 -16.9986 -70.1024 3.56525 -722.682 -530.369 29.3215 22.6416 116.734 -66.6149 -234.003 716.662
4934 1 -16.7119 -69.677 5.09647 1120.85 1254.33 1135.18 44.867 -74.1772 -1.71487 -855.993 196.634
7433 2 -15.1071 -69.6893 5.31663 137.565 -630.655 -659.82 37.0214 155.028 -41.2113 -219.225 833.502
9917 2 -11.422 -69.5117 0.558345 -111.848 -646.513 -475.858 -95.1137 418.788 -121.482 -200.01 906.262
7421 2 -16.4945 -69.5355 0.869259 -564.551 -529.483 -368.231 -6.02325 -252.845 -57.8475 -228.734 484.589
4922 1 -17.4814 -69.498 2.13376 1345.24 1042.13 1326.43 44.7925 111.888 193.403 -854.491 492.262
7438 2 -12.3065 -69.2494 5.37969 -87.5972 -538.755 -520.907 76.8066 -158.555 9.91691 -222.754 537.793
7444 1 -13.8283 -68.8608 5.94598 1057.11 1232.02 1244.23 -195.088 -75.852 -140.51 -902.367 472.806
7430 1 -11.0236 -68.7819 4.56856 895.053 1026.88 1159.02 -65.136 -40.5717 113.068 -886.055 329.057
4942 2 -17.6559 -68.315 5.46225 -373.528 -863.801 -563.703 -368.386 -93.7613 428.338 -208.84 1080.38
7435 2 -14.9747 -67.507 0.876453 -620.473 -636.849 -737.686 176.032 64.5487 -49.8111 -218.562 353.542
7436 2 -11.1545 -67.2065 4.15533 -673.123 -604.209 -763.642 74.9518 3.97234 -156.076 -218.587 330.395
7447 2 -14.1683 -67.4097 5.67412 -322.606 -624.781 -307.715 55.1093 -25.6488 43.0567 -148.173 335.675
2444 2 -21.1307 -66.9743 4.24678 -722.124 -501.027 -404.566 -61.7463 43.2292 -88.3806 -239.553 346.4
2441 2 -24.3736 -66.9051 5.00128 -416.114 -598.667 -160.696 -8.47882 -30.6218 115.327 -167.525 433.729
29898 2 -25.4619 -65.584 2.66178 -495.233 -436.099 -743.377 -43.4221 -255.324 262.452 -255.673 698.295
2542 2 -18.4559 -64.6138 6.52313 -716.453 -688.972 -301.209 52.6976 -54.2286 145.256 -233.713 492.161
2437 1 -24.2858 -66.1457 1.75898 895.208 758.864 1257.83 -168.759 198.272 15.5704 -817.983 635.319
4933 1 -19.57 -66.1222 0.979078 1069.95 839.628 1031.21 -195.006 33.0642 273.087 -841.064 621.866
2445 2 -22.8229 -66.0826 2.39741 -447.457 -562.48 -602.567 -118.556 216.625 28.5623 -244.183 452.594
2439 1 -21.5442 -65.7166 3.32042 1173.79 766.547 959.293 101.6 19.8238 -389.331 -855.731 781.91
2442 2 -20.4331 -65.458 2.16375 -677.522 -594.798 -371.716 -7.31571 -148.443 -12.1584 -238.016 376.527
47 2 -24.4394 -65.3461 0.397395 -643.935 -442.178 -665.833 15.5707 88.2609 -95.6793 -250.108 311.712
2448 2 -21.8312 -64.4844 4.20619 -702.444 -746.769 -445.435 -46.7279 3.81148 103.369 -237.34 343.598
46 2 -23.5078 -63.8949 6.1232 -626.731 -635.967 -640.745 0.177122 -95.9244 -146.026 -240.077 302.866
38 1 -22.087 -63.6158 5.55895 1061.27 1103.03 840.292 96.092 288.943 98.8929 -862.48 606.061
2539 2 -19.6567 -62.9865 0.480641 -648.829 -632.384 -514.435 6.16395 -56.5592 61.3399 -246.368 192.667
43 2 -24.9906 -62.9137 1.12124 -643.342 -311.006 -372.244 -5.62552 -38.3268 221.035 -246.012 494.891
44 2 -21.8318 -62.1186 5.00648 -658.245 -530.717 -498.911 64.9484 -73.2091 -161.675 -226.438 358.443
45 2 -23.463 -62.1104 3.03774 -609.643 -697.83 -597.398 58.1746 -133.477 36.4256 -247.896 276.746
42 2 -20.8136 -62.0155 2.63023 -251.868 -740.793 -606.675 -15.0192 -86.2029 117.187 -238.399 505.598
37 1 -24.8646 -61.8792 2.3758 773.721 1113.96 807.079 -75.1634 124.194 -27.0503 -841.862 413.454
2533 1 -19.5241 -61.9377 1.63479 947.468 1098.65 682.567 -69.9623 -135.943 -260.504 -850.228 637.8
39 1 -22.0588 -61.5518 3.49399 845.207 840.168 899.77 -98.882 35.7653 -189.284 -849.442 379.385
4941 2 -18.0473 -65.8383 1.38317 -533.775 -688.619 -384.505 109.032 133.128 18.6365 -237.183 399.058
2541 2 -18.1731 -61.9752 2.41831 -496.11 -615.109 -770.915 120.071 -28.2439 150.182 -250.573 412.657
2537 2 -20.9733 -63.9071 6.70241 -271.306 -702.362 -384.62 -49.5392 204.252 46.5011 -227.041 537.411
5039 2 -14.2572 -64.9945 0.795025 -597.874 -301.295 -511.876 -29.5288 55.1285 -121.563 -230.359 354.846
5037 2 -13.0931 -61.6692 3.48164 -432.55 -611.795 -532.232 -81.1908 85.491 -22.2575 -247.863 259.588
5038 2 -13.4181 -64.3587 6.8282 -411.428 -898.615 -560.25 92.9761 2.15531 -51.381 -226.184 469.96
2538 2 -15.7564 -61.8447 3.62749 -308.69 -707.95 -498.764 37.437 3.05671 92.79 -243.643 386.924
4935 1 -17.309 -66.3082 2.74801 853.108 1006.52 1443.54 19.7283 -9.67916 -85.3832 -862.257 552.167
4944 2 -17.7159 -65.5093 4.09555 -827.617 -334.02 -273.099 126.28 48.7598 318.305 -232.932 797.714
2534 1 -17.478 -64.426 5.26021 1236.89 1298.92 660.039 -331.687 7.8918 -61.6655 -873.139 845.005
5036 2 -11.8172 -62.6589 5.59364 -509.45 -714.688 -292.741 10.31 -64.6391 -238.568 -226.478 563.17
7431 1 -11.8575 -65.9802 3.46425 984.22 1023.67 1095.84 251.164 -254.264 -17.83 -881.629 627.508
5032 1 -14.3808 -63.4727 0.139964 1073.61 1448.87 826.655 -49.8873 146.115 -155.063 -855.656 661.909
5029 1 -14.465 -61.4935 2.71742 728.474 1248.89 1097.68 -108.006 -81.9545 48.507 -840.751 526.508
5035 2 -14.4778 -62.3846 1.32025 -543.484 -422.607 -147.17 84.9766 53.5212 270.887 -244.932 611.692
5030 1 -12.0876 -64.2016 6.01809 804.19 1320.44 887.885 155.479 -27.4874 -24.3074 -878.549 553.956
2540 2 -17.7912 -62.9381 4.70026 -661.587 -514.245 -528.604 3.23382 18.2796 8.89848 -232.342 145.16
2535 1 -17.3386 -61.7773 3.72144 839.724 1026.73 812.231 -150.424 -70.6781 34.2602 -848.696 356.734
5033 2 -15.977 -64.5618 5.81703 -350.542 -784.88 -654.07 90.8645 199.634 18.6922 -220.754 542.515