ITEM: TIMESTEP
900000
ITEM: NUMBER OF ATOMS
29952
ITEM: BOX BOUNDS pp pp pp
-2.5615833775063237e+01 3.5601128117061187e+01
-9.1378268252579318e+01 1.0136356258677806e+02
-2.1035324467156940e+01 3.4903177627851115e+01
ITEM: ATOMS id type x y z v_StrAtomXX v_StrAtomYY v_StrAtomZZ v_StrAtomXY v_StrAtomXZ v_StrAtomYZ c_PEAtom v_VMS
2400 2 -19.4277 -67.3844 -18.5172 301.083 -535.156 -268.559 -182.232 465.245 -122.207 -275.019 1158.11
7418 1 -12.4601 -67.5305 -0.684983 1513.78 1148.6 1396.35 -126.477 -39.2586 370.794 -938.72 754.544
4940 2 -17.03 -67.8418 3.65135 -569.486 -502.28 119.751 82.6093 366.535 -21.8258 -236.807 926.384
4896 2 -16.0064 -70.7429 -18.0386 -349.594 -2.78797 -640.881 -75.247 -9.15312 -68.1942 -164.26 580.802
7392 2 -11.9725 -70.3584 -15.462 275.539 -544.515 -847.033 -132.707 61.7072 86.3687 -270.642 1048.2
4982 1 -15.8128 -69.4931 -17.2289 497.153 631.079 1462.98 212.272 -112.213 -178.409 -821.34 1043.96
4812 2 -16.6165 -69.4389 -15.7586 -410.036 -132.903 -652.018 -220.434 -93.7458 110.873 -255.263 641.433
7396 1 -13.1783 -69.3188 -15.6305 304.768 427.777 1785.4 130.231 -231.296 79.5345 -740.033 1501.87
7481 2 -14.3345 -69.3539 -16.668 -349.474 -316.711 -908.839 -233.749 259.028 -199.357 -274.486 903.726
7486 2 -11.7817 -68.2771 -15.9683 66.2915 -413.417 -1191.95 -145.027 -20.3981 -25.8678 -297.302 1129.63
4990 2 -16.6778 -68.149 -17.7975 191.397 -495.786 -535.651 -356.424 144.436 -105.535 -268.925 989.098
4898 1 -17.1503 -68.0779 -15.0644 118.709 1197.78 1136.36 388.199 -31.1485 128.975 -727.739 1267.6
7478 1 -10.6387 -69.4796 -15.3496 460.042 356.769 1995.73 59.1972 -94.6964 91.3609 -730.163 1609.36
7399 2 -13.8161 -68.5783 -14.3237 -306.726 -224.443 -591.299 -362.696 -292.433 393.998 -270.23 1108.18
4955 2 -17.6431 -68.0141 6.38103 -154.215 -501.9 -225.61 -223.446 -317.516 149.335 -207.668 787.588
4906 2 -18.2615 -68.113 -13.9429 80.0345 -538.828 -869.718 -151.098 -62.5222 28.432 -269.995 883.118
4913 2 -21.1359 -67.6421 -7.41061 -103.934 -701.766 5.63064 123.444 353.792 19.5778 -231.851 925.895
9917 2 -11.3173 -67.6419 0.52142 -106.719 -465.497 -302.397 111.28 431.643 56.8739 -206.646 838.217
2434 2 -24.7801 -67.277 0.310642 129.01 -520.448 -628.881 102.742 -306.336 -166.795 -234.355 949.015
9905 2 -10.8125 -67.49 -7.45887 -230.537 -782.018 -504.822 153.371 375.239 -16.5035 -226.152 849.645
7332 2 -12.2299 -68.5212 -1.88481 -514.522 -71.7863 -240.481 33.0321 -32.0218 -11.5572 -119.705 395.646
4930 2 -19.1958 -67.722 1.63536 -67.3757 -405.843 -625.008 -121.527 380.783 -127.026 -238.147 874.341
7344 2 -10.686 -67.4833 3.18206 -577.236 -534.566 -86.6158 53.4697 -222.805 -114.175 -212.823 646.688
7409 2 -16.2295 -67.5694 -7.68118 258.539 -699.613 -429.63 -49.9295 136.226 -3.35388 -226.639 891.878
4922 1 -17.718 -67.2872 2.26989 1374.9 717.634 1376.19 25.9187 2.26655 167.391 -845.744 720.376
4904 2 -18.3785 -67.3837 -16.0048 -139.579 -670.323 -374.054 -317.201 -72.5606 109.011 -322.149 752.008
7397 2 -15.8802 -67.125 -14.7277 90.5937 -486.964 -574.715 190.24 264.997 -21.1608 -287.496 844.121
7426 2 -14.0793 -67.5122 -0.176601 214.775 -660.989 -616.715 -178.392 -28.8767 -156.576 -200.182 949.563
2507 2 -20.4699 -62.856 -20.1031 -479.823 -633.87 -541.589 42.2014 -63.0148 -167.99 -280.144 346.335
2412 2 -22.6762 -62.6893 -15.59 -603.352 -498.182 -654.43 -40.0573 -75.9083 -67.2958 -275.273 233.94
11 2 -24.4606 -63.0003 -19.8152 -473.424 -525.714 -531.518 -64.055 -20.3855 -83.4335 -267.23 193.677
2406 2 -20.9728 -63.0709 -17.5897 -479.131 -407.071 -400.861 -20.5816 -196.471 22.5089 -275.928 352.522
4897 1 -20.1817 -63.7159 -18.8159 635.835 732.991 792.269 -132.634 322.388 593.78 -774.437 1200.42
4905 2 -18.6214 -63.6702 -18.4227 -504.604 -691.332 -602.868 118.716 -25.4637 -163.524 -269.78 388.098
2403 1 -22.1654 -63.6898 -16.6804 966.891 540.694 852.916 95.7822 243.99 -202.972 -770.822 689.76
2506 2 -18.306 -61.7503 -15.2419 -282.603 -454.648 -456.695 -13.2957 -180.416 38.6242 -265.205 364.158
2409 2 -23.3503 -64.0525 -17.726 -479.9 -537.899 -432.822 10.1963 -14.9802 4.4861 -277.671 96.7277
2401 1 -24.2956 -64.3764 -18.9668 715.789 1149.62 687.529 33.5545 22.9474 179.194 -787.222 550.054
2501 2 -20.8274 -61.3828 -14.4859 -343.544 -617.327 -572.884 -35.8878 60.7637 154.158 -257.796 388.586
2408 2 -21.6536 -65.0872 -16.0768 -461.198 -60.7322 -651.436 -50.7319 -87.3317 -223.428 -272.048 673.133
4985 2 -20.5213 -65.2397 -19.0968 -598.553 -396.166 -540.923 81.8645 -91.4188 -27.1132 -278.15 282.845
2407 2 -23.5741 -65.4011 -20.015 -506.604 -550.019 -82.6707 -45.2221 -210.119 130.262 -271.532 624.099
2416 1 -25.0676 -66.3813 -14.7482 585.572 870.581 1289.19 -197.65 -141.486 -21.0112 -742.344 744.544
2402 1 -22.0866 -66.7097 -16.0114 772.918 975.273 1312.75 155.372 126.81 200.748 -751.784 681.684
2486 1 -20.9684 -66.7928 -18.9792 1359.09 751.64 1050.14 60.2791 5.58323 88.1285 -770.646 557.739
2410 2 -23.6083 -66.6074 -15.4261 305.109 -387.601 -409.726 -351.198 -300.537 3.9975 -295.704 1066.16
2500 1 -19.8212 -61.5619 -20.7237 870.508 768.253 679.637 -174.069 -139.081 144.331 -773.063 488.667
2686 2 -18.0888 -56.015 -20.9899 -108.195 -522.812 -513.896 94.4484 -150.977 -90.2811 -264.162 536.55
7529 2 -10.7981 -62.3992 6.87259 -218.27 -632.78 -443.496 -19.4819 247.93 104.885 -221.123 589.692
2494 2 -21.8765 -67.1188 -20.3411 16.83 -397.894 106.848 -29.471 752.516 -196.059 -263.221 1426.25
4912 1 -19.4129 -67.1935 -14.5983 217.904 945.073 1144.39 271.397 168.511 12.4186 -731.575 1009.98
4934 1 -16.5644 -67.4112 5.17024 1121.03 1161.47 1288.45 231.096 -111.349 -50.3264 -842.885 477.393
7394 1 -11.8367 -66.6333 -15.6908 716.652 281.847 1458.99 -27.5033 35.2105 384.733 -761.508 1230.02
7401 2 -13.7752 -64.9575 -18.9503 -259.791 -478.052 -34.0325 64.4129 477.439 -89.7589 -271.319 931.848
4908 2 -16.8053 -63.4816 -16.6333 -503.03 -266.086 -480.599 27.8999 -43.8454 167.71 -261.721 379.226
2498 1 -16.8471 -62.0257 -15.8714 869.058 896.379 886.05 -151.12 -9.17374 -11.4453 -799.049 264.06
4997 2 -15.7192 -61.9651 -14.767 -621.952 -547.427 -707.291 64.5211 -110.673 7.93328 -265.454 261.955
5002 2 -13.1556 -62.2067 -14.8433 -387.432 -498.94 -545.957 -84.3453 -121.818 86.6883 -252.901 329.079
4994 1 -11.9268 -62.2083 -15.8504 688.109 971.855 1200.13 4.59384 33.8051 47.7178 -812.628 455.759
5003 2 -14.0316 -63.0213 -20.6248 -309.704 -120.018 -466.284 128.207 -104.218 -181.156 -284.36 520.142
7404 2 -12.2984 -63.3952 -16.9921 -291.051 8.22335 -192.46 212.076 283.444 253.37 -266.99 798.949
4902 2 -16.0942 -63.9633 -19.0606 -367.488 -530.107 -588.46 119.636 -191.941 -250.297 -274.875 617.047
4899 1 -17.2308 -64.2209 -17.9862 429.173 716.8 955.857 -69.573 103.638 199.137 -795.284 611.839
7393 1 -14.8443 -64.2965 -20.0043 886.291 929.867 1011.12 40.5945 114.737 357.983 -763.019 664.029
7398 2 -11.2742 -64.5467 -19.1193 -193.13 -774.464 -549.042 -148.583 -145.755 -135.36 -262.258 665.32
7395 1 -12.4336 -64.6773 -18.0408 711.142 1165.58 993.8 96.7052 24.6354 619.218 -790.462 1156.77
4903 2 -17.5165 -65.7789 -17.7758 -534.655 -486.51 -641.426 212.914 -65.3213 -189.726 -270.702 525.018
7400 2 -12.0451 -65.9784 -17.1405 -456.606 -305.732 -497.895 -109.946 208.66 -342.287 -266.267 740.985
7402 2 -13.2336 -66.4329 -14.9632 -8.89919 -610.25 -735.441 45.8049 -82.1783 15.3636 -274.862 692.706
7493 2 -10.5953 -62.5006 -15.0293 -306.502 -457.4 -450.666 83.2153 240.063 22.0716 -262.789 465.754
7433 2 -14.9774 -67.3515 5.40357 -230.91 -539.873 -651.999 141.028 123.261 -78.8518 -229.418 516.307
2316 2 -21.8394 -66.9998 -17.6208 -439.327 -524.515 72.0064 -65.8435 -273.303 -178.32 -277.341 802.97
2 1 -22.3224 -61.2464 -15.1059 1030.7 555.154 882.836 -16.689 33.2379 -241.872 -805.916 597.786
1 1 -24.1213 -59.0581 -19.5533 985.823 798.446 1067.09 146.889 -20.5745 24.511 -807.114 353.192
2497 1 -19.4331 -59.0884 -18.8616 750.581 556.404 985.257 -23.3013 51.7362 -159.472 -816.396 473.602
8 2 -22.2451 -60.0906 -16.207 -724.678 -236.029 -574.504 40.1351 53.3812 8.67154 -261.893 448.948
2503 2 -19.6923 -60.4286 -19.6123 -576.926 -486.867 -643.182 -21.5679 -110.651 -22.2182 -270.241 240.987
7 2 -24.0789 -60.5252 -20.2923 -493.314 -342.772 -620.517 -43.0924 57.8024 38.7647 -261.45 279.455
3 1 -21.9999 -58.8431 -17.163 1073.26 701.016 798.706 -23.9835 154.942 -149.934 -817.729 502.923
6 2 -20.4675 -58.9328 -17.6338 -437.67 -470.261 -561.359 -84.4138 -192.609 109.857 -252.648 425.685
9 2 -22.8713 -58.9516 -18.5362 -392.365 -457.928 -344.682 -54.6024 165.594 -13.9381 -258.337 318.574
107 2 -24.0818 -57.8549 -20.6054 -488.741 -239.283 -504.366 2.18175 -71.9292 -218.364 -262.784 474.294
2603 2 -19.7242 -57.8192 -19.8192 -503.322 -184.976 -551.573 4.35269 -28.2658 -106.631 -260.922 394.458
12 2 -22.454 -57.5588 -16.3627 -591.55 -602.306 -392.036 -40.6806 -130.198 93.2167 -254.775 352.072
2597 2 -20.7899 -57.3019 -14.4503 -439.461 -408.043 -543.805 -26.9084 107.062 137.847 -260.305 329.723
98 1 -22.2783 -56.946 -14.878 841.484 917.406 952.58 64.8594 82.6464 -236.953 -817.137 459.591
2596 1 -19.6063 -56.3895 -20.581 939.602 846.705 936 146.571 92.6447 -115.559 -808.466 372.248
103 2 -24.7421 -55.4492 -20.1153 -606.892 -538.373 -361.275 -48.1385 131.525 99.3254 -259.263 369.646
104 2 -22.5142 -55.3551 -15.21 -468.891 -220.055 -452.142 -78.5016 56.8928 -326.759 -250.916 637.608
2599 2 -20.1454 -55.2365 -19.6465 -642.981 -412.844 -590.585 -34.7219 -53.6368 100.609 -255.736 293.708
2505 2 -17.9561 -59.1224 -18.3228 -450.301 -498.376 -522.81 -119.937 54.6891 -59.0536 -259.61 258.21
2602 2 -18.1724 -57.5593 -14.5997 -447.391 -621.864 -629.956 101.218 -52.1663 -74.5025 -249.192 295.752
27774 2 -25.4883 -44.5187 -4.37174 -481.134 -741.304 -579.99 9.4927 -56.7342 18.801 -245.126 250.457
27462 2 -25.4761 -59.2081 -18.6488 -328.967 -417.218 -530.306 62.4986 -126.603 -147.851 -264.316 394.893
5000 2 -11.8171 -60.7087 -16.474 -530.632 -70.222 -595.282 91.8916 16.659 37.9276 -253.153 525.741
2504 2 -16.5906 -60.94 -17.0432 -542.331 -310.489 -372.853 52.6562 -23.1681 -75.3151 -266.674 264.815
4993 1 -13.8163 -59.0883 -19.1762 813.081 514.418 1053.7 -167.168 -46.3973 -212.699 -809.77 667.064
4995 1 -11.6693 -59.1182 -16.831 791.832 921.565 737.037 -105.96 106.833 -51.3449 -821.126 320.583
2499 1 -16.5532 -59.4195 -17.5507 957.909 890.266 882.56 21.2642 87.2161 19.1625 -813.098 174.454
2502 2 -15.2681 -59.1622 -18.4814 -364.925 -473.5 -573.382 49.0359 -182.896 -48.285 -258.143 383.629
4999 2 -13.4829 -60.3915 -19.961 -506.504 -521.587 -652.022 127.557 17.8567 69.297 -270.206 288.761
5001 2 -12.802 -58.9231 -17.9614 -422.253 -602.579 -603.613 72.1913 83.039 -55.8709 -252.707 279.984
2508 2 -16.469 -58.3233 -16.3764 -692.45 -371.169 -610.575 13.2298 4.62785 100.049 -251.382 337.992
5004 2 -12.1845 -58.1707 -15.6505 -606.828 -642.175 -687.603 -119.958 -137.343 -40.3853 -249.668 331.014
5099 2 -13.8374 -57.9397 -20.3167 -475.028 -472.621 -510.289 37.6078 87.895 -33.5856 -261.536 179.27
2594 1 -16.7535 -57.2086 -15.293 1112.11 799.436 825.083 63.7132 66.7461 -169.897 -831.233 450.048
5090 1 -12.1418 -56.872 -14.813 1095.32 748.668 785.991 63.9936 113.855 -302.136 -835.048 658.523
2600 2 -16.786 -55.8493 -16.1336 -618.861 -447.704 -380.636 39.7479 -36.1039 -145.554 -253.295 342.753
5096 2 -12.4643 -55.5945 -15.7455 -670.296 -332.251 -441.172 60.2552 -45.8693 -63.0434 -247.573 344.159
5095 2 -13.8001 -55.3703 -20.0163 -569.89 -462.601 -644.535 -122.955 -85.9897 32.8545 -256.07 309.622
5093 2 -15.6027 -57.2441 -14.1473 -569.632 -539.977 -353.388 -75.3918 112.764 -24.9297 -248.471 313.514
7589 2 -10.5352 -56.693 -14.4701 -200.784 -623.04 -629.284 59.8298 -87.5812 147.614 -244.367 529.241
2828 2 -17.5098 -45.3673 4.25598 -523.798 -349.632 -427.993 -142.812 79.58 -200.005 -244.389 472.247
105 2 -23.6541 -54.7032 -17.6241 -163.923 -513.955 -44.5014 -37.0412 338.537 107.771 -251.785 749.245
97 1 -24.8011 -54.5001 -18.8286 1087.96 848.645 968.38 222.146 327.012 -112.235 -815.964 741.351
102 2 -21.067 -54.5842 -17.2757 -340.007 -465.461 -463.981 -80.9899 -193.403 59.1008 -257.583 397.4
2593 1 -19.9016 -54.3783 -18.3077 702.321 1042.11 912.134 94.9303 149.258 -145.976 -818.877 495.967
99 1 -22.4986 -54.3459 -16.4849 1100.37 756.023 1228.97 74.4545 75.504 -12.115 -822.039 462.135
203 2 -24.5299 -53.0586 -19.4696 -457.235 -343.412 -343.605 22.5156 -138.861 -288.111 -258.278 566.856
2699 2 -19.8061 -52.7917 -18.805 -468.755 -205.518 -434.471 -3.62306 0.0364775 -225.96 -252.103 463.311
108 2 -22.7004 -52.8449 -16.0416 -487.851 -277.718 -597.358 -82.3381 -33.1847 131.17 -257.85 392.96
2692 1 -19.6637 -51.7758 -20.0393 893.789 710.602 1105.92 -39.25 96.6705 58.6864 -823.099 400.507
194 1 -22.4119 -51.3533 -15.4575 1047.55 842.698 1134.08 163.59 128.894 -35.1436 -822.857 448.339
2693 2 -20.8878 -51.3997 -14.8007 -6.63941 -447.376 -536.307 -127.591 151.518 22.1083 -247.741 600.442
2704 1 -19.3531 -51.5861 -14.2976 1098.34 913.019 978.079 20.0414 43.7421 -83.6643 -844.4 233.374
2698 2 -18.2967 -51.4588 -15.5216 -293.855 -516.222 -470.582 -64.3804 -231.354 108.606 -237.283 499.775
196 1 -24.4659 -52.0271 -20.7468 779.63 882.111 1275.05 99.3763 42.7691 42.4104 -811.991 495.661
2601 2 -18.4962 -54.8747 -17.7685 -227.338 -468.392 -636.952 -21.0223 -51.2449 68.4676 -258.452 387.839
202 2 -23.5637 -51.0558 -14.4115 -453.048 -571.522 -377.31 -10.0346 -228.833 7.15649 -257.405 431.619
2782 2 -18.2428 -51.9668 -20.7167 -465.467 -443.1 -508.075 -37.0588 -131.324 -1.12095 -256.486 243.168
199 2 -24.2622 -50.48 -20.2445 -468.445 -85.2117 -530.571 -76.6338 -5.95194 120.759 -260.292 485.808
2695 2 -19.8903 -50.2871 -19.4708 -439.056 -343.215 -561.581 -48.6147 1.00268 246.737 -258.136 475.048
200 2 -22.2825 -50.2855 -16.6828 -572.786 -535.56 -344.179 38.024 -60.3514 -150.765 -255.586 358.596
2598 2 -15.7609 -54.8923 -18.3743 -276.956 -451.001 -503.496 68.9682 -200.442 -58.7164 -259.807 432.814
5097 2 -13.3899 -54.1953 -17.6866 -377.523 -578.71 -559.924 27.2402 102.107 99.6307 -256.013 316.752
2595 1 -16.9433 -54.7367 -17.2773 967.845 824.35 1053.05 -5.01959 30.4334 -4.02335 -817.56 207.315
5091 1 -12.2509 -54.2535 -16.5935 1075.96 938.803 991.973 -100.498 -132.665 63.7178 -825.163 331.097
5089 1 -14.3885 -54.2926 -18.954 832.361 818.798 987.474 14.756 4.01163 -15.7012 -816.145 166.699
2604 2 -16.7679 -53.2357 -16.7184 -538.709 -578.657 -591.361 64.3045 -7.77495 38.8325 -258.569 139.195
5100 2 -12.3181 -52.9183 -15.6278 -504.486 -244.583 -459.595 -3.62902 -37.5316 229.322 -244.219 468.965
5195 2 -14.4323 -52.9001 -19.6897 -504.053 -362.898 -536.827 164.26 -94.2399 -91.4019 -262.259 397.839
5186 1 -12.101 -51.3522 -15.2215 573.488 967.876 924.055 -18.0531 -60.6515 -81.7441 -840.666 415.017
2690 1 -16.8231 -51.7865 -16.1992 1105.21 589.431 998.464 -82.3377 16.7434 -110.547 -840.444 529.347
5189 2 -15.793 -51.5433 -14.9788 -650.832 -644.244 -388.317 38.5143 6.48813 101.999 -243.732 320.96
5094 2 -10.7547 -54.3597 -17.3196 -257.207 -430.271 -617.923 -26.6645 -61.6738 95.5019 -257.411 372.218
5194 2 -13.3676 -51.0317 -14.3308 -546.162 -615.404 -585.195 179.171 -45.4564 -80.823 -238.279 354.567
7685 2 -10.7484 -51.3054 -14.4633 -665.475 -591.012 -630.778 -82.7117 24.685 25.3274 -251.286 168.645
2696 2 -16.6677 -50.683 -17.3396 -545.493 -123.972 -615.132 -90.4698 104.724 -157.881 -244.516 586.617
5191 2 -13.8658 -50.2924 -20.1606 -559.549 -357.232 -593.353 148.711 95.412 66.3397 -257.085 394.68
5192 2 -12.0973 -50.4755 -16.5496 -556.704 -406.507 -420.121 -53.1832 138.588 -137.475 -251.239 378.817
5188 1 -14.2759 -51.7392 -20.8062 780.611 827.462 1188.78 36.1313 -1.01025 6.89587 -812.775 392.092
2689 1 -19.6407 -48.8068 -18.9122 897.266 835.897 1305.57 13.2158 -120.875 13.7611 -821.963 490.365
198 2 -20.8667 -48.4156 -17.8376 157.623 -470.546 -291.39 -0.268948 -377.879 110.548 -245.577 882.719
193 1 -24.4772 -48.9684 -19.7154 900.226 766.101 827.006 30.0544 65.4036 213.419 -818.067 407.081
201 2 -23.4375 -48.6736 -18.4928 -427.286 -519.136 -394.217 -9.28926 114.924 21.766 -254.111 232.1
195 1 -22.4052 -48.8534 -17.2934 1232.08 849.185 812.183 -22.4306 -74.8119 -55.4747 -825.798 435.52
204 2 -22.8466 -47.907 -16.0388 -513.64 -382.266 -240.654 2.74638 -41.8114 248.477 -252.295 496.393
2795 2 -19.6778 -47.7796 -20.1715 -567.417 -555.309 -436.368 14.1844 -15.6161 -78.0959 -253.206 188.058
290 1 -22.4541 -46.9007 -14.8267 878.561 1023.36 1033.24 3.36007 208.254 -79.052 -835.583 413.987
295 2 -24.1425 -45.434 -20.0137 -597.976 -408.002 -369.023 -14.4669 -29.3828 163.582 -253.069 358.483
2791 2 -19.9909 -45.2572 -19.9368 -584.398 -267.718 -514.749 72.6961 162.381 226.598 -252.724 576.262
296 2 -22.4707 -45.3955 -15.4115 -490.964 -370.971 -449.053 181.302 -172.523 -115.906 -249.627 489.216
294 2 -20.9015 -44.7361 -17.5769 -393.888 -545.476 -242.924 69.0923 -299.031 -55.5608 -247.164 600.412
297 2 -23.4672 -44.4959 -17.6635 -284.058 -601.272 -426.132 -31.5634 191.514 -30.1738 -247.574 437.601
291 1 -22.1917 -44.3928 -16.6521 995.463 839.136 1075.62 -73.4515 -83.7422 -29.9024 -831.526 288.617
2785 1 -19.7905 -44.2355 -18.6796 908.004 1117.06 992.796 107.357 49.6214 0.104752 -816.75 274.104
289 1 -24.4731 -44.3109 -18.9157 1011.42 1122.05 758.129 -19.6578 125.773 -103.675 -824.642 430.439
2793 2 -18.3879 -44.3427 -17.9324 -421.204 -548.363 -414.228 -72.7007 151.87 97.2862 -261.944 361.315
2789 2 -20.9184 -47.0568 -14.352 -136.567 -551.454 -514.471 189.467 117.112 126.299 -245.756 595.692
2697 2 -18.1692 -48.6729 -18.2811 -283.489 -422.395 -654.961 64.0886 118.185 95.5368 -261.225 432.774
299 2 -24.2644 -47.8828 -20.797 -504.484 -364.958 -703.392 -23.386 -39.2336 -68.6591 -257.852 327.391
2794 2 -18.2226 -47.238 -15.1058 -101.237 -567.835 -511.216 -31.1547 -224.514 143.881 -239.824 640.888
2788 1 -19.6556 -46.4306 -20.9634 913.08 785.617 695.554 14.7669 -19.9971 -54.1095 -830.825 215.581
2691 1 -16.72 -49.0831 -17.7962 792.709 892.893 1205.4 -31.1027 -23.2613 -214.562 -823.186 530.701
2694 2 -15.6411 -48.9421 -18.9861 -451.035 -575.1 -566.363 -41.4099 -94.9015 164.133 -248.513 356.885
5187 1 -12.0777 -48.9708 -17.1794 1109.07 1007.16 844.86 -55.5375 -68.9315 -188.362 -827.222 428.039
5190 2 -10.6203 -48.7082 -17.8259 -372.56 -552.686 -441.565 1.04262 -123.859 130.553 -248.334 349.194
7781 2 -10.5822 -47.0319 -14.287 -266.531 -479.003 -520.626 -42.7549 139.059 8.82661 -250.955 345.616
5185 1 -14.1531 -48.8819 -19.564 849.6 620.975 941.754 49.6295 88.3331 -76.5842 -831.143 360.864
5286 2 -10.7704 -44.5452 -17.7045 -476.637 -514.117 -406.304 114.448 -181.099 -90.7213 -250.722 413.961
5193 2 -13.1862 -48.5989 -18.295 -411.408 -433.579 -365.897 -89.5134 156.648 -18.8567 -256.059 319.831
5196 2 -12.2956 -48.0527 -15.871 -654.465 -579.618 -366.166 -25.2499 -23.8976 181.349 -243.723 411.616
2700 2 -16.3059 -48.2935 -16.4557 -651.694 -479.89 -459.469 32.6932 66.77 74.2745 -250.817 258.018
2786 1 -16.6804 -46.9994 -15.645 1176.42 929.071 614.062 88.2729 8.35574 -275.769 -834.24 700.044
5282 1 -12.0558 -46.8522 -14.8399 877.877 943.209 867.277 -48.4235 -68.9095 -72.907 -839.662 205.669
2792 2 -16.6735 -45.658 -16.4841 -585.561 -262.498 -377.533 -60.3463 -2.98378 -41.0623 -259.014 310.563
5288 2 -12.2451 -45.5353 -15.7216 -517.463 -634.818 -512.419 -29.0252 70.3911 -18.0012 -250.682 180.98
5287 2 -14.0698 -45.1694 -20.5077 -512.096 -344.899 16.7538 -58.0512 -17.2626 371.224 -248.535 802.272
5289 2 -13.315 -44.5114 -17.9147 -391.359 -562.086 -300.451 5.28418 176.418 84.335 -253.542 409.541
2790 2 -15.7868 -44.3984 -18.6673 -400.104 -558.202 -554.967 8.73044 -124.248 -30.926 -258.609 271.854
2787 1 -16.8607 -44.364 -17.469 797.01 1019.2 1106.68 107.146 -8.34462 -97.8684 -817.506 373.953
5283 1 -12.1121 -44.4369 -16.8392 885.128 1020.35 938.089 -20.8624 1.11362 148.148 -833.929 284.746
5281 1 -14.3095 -44.2158 -19.1478 795.608 1163.95 1040.17 23.6341 88.8314 67.2527 -826.22 379.899
5285 2 -15.7176 -46.9035 -14.3546 -529.392 -675.501 -453.741 -59.2486 40.4964 -19.5305 -246.745 233.922
5291 2 -14.1513 -47.7417 -20.6594 -534.387 -325.534 -379.278 -83.4892 89.2124 -171.923 -248.498 410.785
2512 1 -19.3552 -61.7675 -14.021 852.108 788.414 885.112 102.817 66.7975 -215.812 -812.07 438.26
4915 2 -19.2876 -65.7867 -13.843 -504.998 -290.306 -107.183 21.2864 -113.642 428.017 -273.262 841.808
4918 2 -18.7264 -66.3674 -7.29251 -234.818 -419.408 -449.487 45.1517 -293.104 6.72019 -272.855 551.826
2424 2 -21.7891 -63.6304 -9.6103 -625.046 -534.572 -214.64 11.6141 28.9849 218.219 -250.74 534.109
16 1 -24.8931 -61.4102 -13.4831 1100.75 771.568 609.702 40.2439 127.331 -256.855 -827.146 662.77
14 1 -21.9379 -62.6823 -8.29007 1100.92 1067.89 845.081 179.429 203.935 -125.299 -844.682 571.443
22 2 -23.4095 -63.0175 -7.74101 -327.899 -511.63 -460.831 -54.7745 -241.154 71.1365 -246.227 475.029
23 2 -24.6044 -62.8567 -12.8825 -616.624 -329.346 -479.631 -16.5292 -35.6374 94.3633 -261.609 305.424
2519 2 -19.5207 -63.2846 -13.4718 -592.955 -463.836 -547.384 155.22 -161.263 -14.7309 -259.992 404.737
2413 1 -24.6789 -64.3358 -12.2647 1104.38 1043.77 780.833 224.519 143.995 -81.1492 -812.028 567.391
4909 1 -19.4088 -64.6124 -12.6561 1047.05 684.153 999.122 110.131 23.302 -15.5432 -804.871 394.133
2415 1 -21.9028 -64.8593 -10.6391 1188.53 982.529 660.546 17.5451 209.869 130.702 -815 629.876
2421 2 -23.2148 -64.6896 -11.6431 -244.167 -523.132 -123.26 -72.8352 309.432 34.1086 -257.424 657.889
2418 2 -20.608 -64.9555 -11.6264 -401.606 -479.212 -198.893 -45.1 -291.421 47.2753 -262.386 574.832
2419 2 -25.1309 -65.4374 -13.473 -410.131 -202.881 -2.08078 7.34924 96.0707 341.398 -276.542 708.8
2328 2 -21.9722 -66.1305 -9.70057 -691.11 -515.47 -298.711 -101.127 -22.9775 -238.04 -260.725 564.056
2414 1 -22.1436 -66.6258 -8.20032 1059.28 1167.73 788.623 51.1366 99.288 78.9213 -800.921 412.887
2422 2 -23.7524 -66.7707 -7.91602 -21.0952 -350.29 -658.598 -91.6768 -220.799 -6.2551 -260.906 690.293
2428 1 -25.1435 -66.6694 -7.15984 858.844 1076.27 1059.75 -12.2744 132.678 86.8003 -814.708 346.151
2420 2 -21.2941 -65.5181 -7.25948 -98.6359 -944.39 -225.296 34.8253 230.29 20.8801 -231.378 887.844
4917 2 -18.0958 -64.449 -11.72 -544.83 -521.458 -246.725 -7.04495 134.14 133.199 -256.782 435.661
20 2 -21.8712 -61.1951 -8.93591 -624.948 -387.542 -361.363 -28.4399 -118.866 -136.102 -247.866 404.533
7414 2 -13.5217 -66.7166 -7.98996 36.6506 -385.719 -778.896 -60.9104 -77.7645 7.66522 -265.044 726.979
5008 1 -14.4669 -62.0571 -13.8872 725.885 823.305 781.687 7.98749 -196.146 -75.1268 -826.908 373.78
4910 1 -17.3316 -66.3884 -8.0867 686.853 1185.76 963.172 -83.6673 73.9652 22.7897 -797.289 475.787
7411 2 -14.5677 -66.1202 -12.7046 -489.693 137.345 -300.845 -52.5618 -60.8326 429.169 -266.24 939.348
4916 2 -16.0815 -65.4437 -7.6669 98.8752 -1063.75 -618.928 -146.261 -68.4086 9.53246 -234.135 1053.99
4914 2 -15.6673 -64.4469 -10.99 -203.027 -597.257 -442.833 -8.92803 -288.802 36.8674 -249.253 610.674
7405 1 -14.4099 -64.6183 -12.0065 1105.87 1022.22 877.097 75.9674 62.0105 -58.3174 -822.871 281.513
5015 2 -14.5224 -63.4163 -13.0278 -667.633 -357.292 -698.547 -13.8019 3.16466 36.7123 -248.898 333.925
7416 2 -11.3622 -63.644 -9.35175 -522.276 -623.864 -719.595 45.1032 97.003 151.841 -242.739 364.292
5014 2 -12.9052 -62.8702 -7.44683 -366.077 -580.234 -514.006 153.576 -201.001 66.5335 -239.89 491.23
5006 1 -11.5008 -62.5673 -8.16288 828.205 1162.9 1067.21 68.0195 -27.7635 -333.67 -853.212 662.834
2510 1 -17.1227 -62.423 -7.97997 1320.75 1058.81 1097.43 -91.9083 30.817 -23.0722 -845.168 299.631
4920 2 -17.4371 -63.3154 -9.32442 -570.803 -63.7327 -101.446 62.1207 19.7384 391.509 -249.493 843.802
4911 1 -17.1781 -64.5882 -10.4135 1025.14 1270.77 769.225 10.626 36.0109 150.355 -819.818 510.62
7407 1 -11.5202 -64.7487 -10.458 827.182 956.288 681.37 -171.211 204.611 -167.141 -838.023 595.063
7413 2 -12.9347 -64.5 -11.3084 -121.091 -523.957 -324.133 13.6885 246.634 122.397 -245.275 591.37
5009 2 -15.6061 -62.5279 -7.44011 -54.0741 -724.647 -415.812 81.7974 174.177 116.289 -239.044 699.718
4824 2 -17.444 -65.9567 -9.6375 -608.841 -406.305 -258.414 -51.4075 -208.582 -242.526 -260.215 638.553
7320 2 -11.6174 -66.0932 -9.65378 -553.793 -729.702 -173.012 94.8826 -60.0492 -111.527 -249.707 563.969
7406 1 -11.9451 -66.5591 -8.11067 455.105 1177.49 1241.86 -240.471 -229.354 51.172 -807.304 954.793
7408 1 -14.429 -67.0711 -14.0324 545.762 980.055 1300.89 -77.0517 27.4766 -117.033 -768.547 701.463
7505 2 -10.3656 -62.5993 -7.0354 -576.047 -743.535 -469.792 -125.095 111.006 155.317 -235.525 461.976
5325 2 -13.1718 -43.781 2.52526 -346.264 -624.349 -505.735 -3.56593 43.3868 12.2092 -249.757 254.064
10 2 -23.5064 -60.8674 -14.0808 -355.765 -647.086 -497.69 11.9167 -64.6398 49.0774 -251.557 289.571
106 2 -23.3136 -57.3949 -13.7672 -387.577 -506.703 -339.769 -98.9887 -193.705 159.741 -256.469 490.595
21 2 -23.5671 -59.9018 -10.4787 -197.567 -491.602 -424.616 -199.629 -9.05832 61.3936 -259.896 449.841
15 1 -22.0234 -60.0568 -10.0522 1065.08 900.612 1054 64.6172 127.493 -123.659 -829.932 364.026
2509 1 -19.4487 -59.81 -11.7308 1091.16 924.176 868.083 -34.0276 73.1779 -261.144 -823.34 514.319
13 1 -24.9954 -59.4468 -11.0948 1258.55 1020.57 982.664 154.252 199.817 -109.362 -829.765 542.342
2517 2 -18.481 -59.8105 -10.4471 -386.877 -544.374 -423.695 54.4196 152.705 68.8004 -248.838 336.755
18 2 -20.9442 -60.2054 -11.2716 -200.221 -515.487 -406.991 41.0282 -294.74 -10.3556 -255.109 585.616
2515 2 -18.9055 -60.7769 -12.8748 -610.75 -492.679 -464.956 -17.6757 -91.0644 131.542 -259.922 309.367
24 2 -21.6676 -58.5653 -9.47281 -643.304 -133.542 -490.516 30.3963 -93.2478 241.492 -243.87 639.632
2615 2 -19.445 -58.3183 -12.4487 -570.669 -35.6026 -399.928 29.3871 11.3786 -199.726 -251.833 588.847
119 2 -24.8893 -57.9257 -11.706 -629.51 -183.628 -439.954 -88.7103 -60.1015 -207.883 -243.303 560.637
2608 1 -19.3874 -57.2386 -13.6609 764.314 934.77 1070.42 185.99 117.249 -172.656 -824.808 552.294
112 1 -24.7047 -56.9753 -13.0027 1060.71 744.645 972.546 60.4 70.3399 -151.184 -834.291 417.328
110 1 -21.8363 -57.0277 -8.95847 1157.07 932.638 911.602 -87.3695 214.095 91.5546 -833.461 491.01
124 1 -24.5151 -56.8831 -7.36911 1060.97 989.832 942.537 118.909 161.306 -77.9428 -834.654 386.477
118 2 -23.3705 -56.7806 -8.52115 -261.44 -500.64 -472.402 -14.1242 -170.632 -13.3032 -249.186 373.811
2609 2 -20.7992 -56.7466 -7.72856 -424.604 -538.948 -292.663 19.1708 134.594 6.03279 -249.023 318.006
116 2 -21.6142 -56.0393 -10.1891 -618.56 -407.292 -345.88 -38.9073 25.8994 -122.361 -255.485 335.932
2611 2 -19.0186 -55.6851 -13.263 -567.379 -209.322 -582.334 171.9 61.4913 -0.345517 -249.768 483.505
115 2 -24.7928 -55.4698 -12.6556 -543.231 -490.088 -586.056 -195.805 -117.661 139.433 -250.498 470.967
2614 2 -18.2233 -56.7101 -7.55262 -393.539 -622.063 -454.936 127.642 -157.811 44.3593 -236.75 414.072
19 2 -25.3632 -60.3696 -12.4278 -714.623 -456.19 -350.679 24.3262 145.175 158.515 -246.399 495.553
5011 2 -14.4213 -60.891 -12.8143 -511.749 -467.037 -221.586 -78.7333 -191.446 255.18 -252.399 630.176
2516 2 -17.2817 -60.8314 -8.34181 -690.235 -209.996 -540.139 86.8332 -35.4978 -37.8855 -239.158 460.198
5012 2 -11.4578 -61.1126 -8.90605 -479.477 -329.919 -413.013 -4.54435 -57.1331 -129.852 -247.738 278.001
2514 2 -15.9291 -60.3159 -10.516 -262.229 -432.555 -226.035 -17.6961 -289.086 148.222 -253.044 595.018
5013 2 -13.2472 -60.202 -10.6147 -208.019 -499.745 -541.054 -65.9992 227.801 61.1174 -246.255 528.03
2511 1 -17.1433 -59.7889 -9.52987 1110.06 680.12 1017.49 -149.763 -34.5259 -58.3905 -839.51 484.469
5007 1 -11.7609 -59.985 -9.99383 933.443 904.874 1163.5 109.252 -5.23151 -115.883 -844.614 369.45
5005 1 -14.6252 -59.9871 -11.437 1067.07 1099.53 1119.34 -35.5167 -71.9111 -212.158 -822.45 395.5
5010 2 -10.763 -59.9226 -11.2757 -456.028 -569.122 -278.992 26.0958 -192.604 -110.925 -242.325 463.032
5111 2 -14.7216 -58.4049 -11.923 -474.942 4.44327 -440.139 41.4371 13.7396 -95.8988 -258.739 497.639
5016 2 -11.6559 -58.4746 -9.42382 -520.059 -190.488 -631.898 26.726 76.8866 127.895 -244.577 476.375
2520 2 -16.9387 -58.3123 -9.03779 -629.217 -532.109 -607.166 -32.6861 -52.0132 50.3837 -248.518 163.437
5098 2 -13.1991 -57.0109 -13.6342 -520.88 -585.433 -563.63 130.422 -162.816 -42.9967 -247.149 373.28
5104 1 -14.6083 -57.1378 -12.9021 860.456 949.679 988.319 -59.9357 20.6622 -138.487 -832.961 287.219
2606 1 -16.9721 -56.8085 -8.52611 887.233 767.787 885.561 -65.6647 44.0191 -140.999 -844.98 304.075
5102 1 -11.6567 -56.8914 -9.0964 963.906 1018.23 853.032 64.4282 -53.1064 -73.6783 -842.098 241.799
5110 2 -12.9827 -56.5448 -8.29921 -390.78 -616.115 -444.138 5.24541 -79.3587 32.5224 -247.951 252.484
5105 2 -15.5877 -56.5647 -7.76804 -372.584 -578.724 -385.696 -34.9068 140.485 67.6175 -248.712 341.384
5108 2 -11.6014 -55.942 -10.3889 -579.146 -363.714 -617.564 -44.786 1.2977 -14.5142 -244.138 250.635
2612 2 -17.1911 -55.706 -9.6484 -546.355 -388.204 -579.171 6.80217 17.1795 35.2137 -252.214 189.797
5107 2 -14.8355 -55.6456 -12.2604 -595.889 -104.523 -625.224 32.0633 56.5362 41.5393 -248.23 523.989
5116 1 -14.1026 -56.8345 -7.15458 1080.34 1090.87 828.562 44.4969 69.0203 -246.539 -836.297 518.393
7601 2 -10.3461 -56.4743 -8.23937 -424.289 -622.728 -418.672 81.3644 147.929 179.721 -240.716 472.157
2711 2 -19.0739 -53.0124 -13.6431 -544.668 -412.232 -452.768 -74.508 15.6836 -23.9299 -253.106 181.45
208 1 -24.9615 -51.3923 -13.6841 907.495 1104.46 830.242 -57.1852 -130.755 -88.4439 -823.295 380.195
111 1 -21.7311 -54.5653 -10.8075 999.579 927.749 1047.41 16.632 84.5259 -183.261 -823.776 365.925
109 1 -24.7123 -54.0283 -11.869 756.314 906.75 1186.37 64.2512 132.379 -40.8374 -831.32 461.348
2605 1 -19.2665 -54.2415 -12.6321 1078.48 805.034 844.307 16.9933 59.7658 -94.4797 -828.643 322.394
114 2 -20.8101 -54.3212 -12.1502 -377.081 -465.45 -319.203 137.23 -169.057 -39.8912 -250.584 404.086
117 2 -23.2405 -54.1294 -11.2051 -303.26 -436.606 -597.393 -230.051 142.857 -34.997 -248.449 537.348
120 2 -21.2856 -53.5048 -9.67784 -640.959 -462.532 -535.876 -26.1185 -107.464 112.288 -249.972 314.082