ITEM: TIMESTEP
1580000
ITEM: NUMBER OF ATOMS
29952
ITEM: BOX BOUNDS pp pp pp
-2.5615833775063237e+01 3.5601128117061187e+01
-1.1397558635098670e+02 1.2396088068518544e+02
-2.1035324467156940e+01 3.4903177627851115e+01
ITEM: ATOMS id type x y z v_StrAtomXX v_StrAtomYY v_StrAtomZZ v_StrAtomXY v_StrAtomXZ v_StrAtomYZ c_PEAtom v_VMS
4896 2 -16.0447 -72.6232 -18.0466 -329.366 40.3075 -449.893 -27.2655 20.7332 -3.24701 -167.13 446.422
7392 2 -12.0885 -72.1787 -15.1548 201.526 -603.077 -987.112 -128.365 104.908 77.6882 -275.996 1097.46
4982 1 -15.9467 -71.4324 -17.0939 727.378 602.205 1477.61 158.464 -56.7698 30.4991 -819.721 871.908
7478 1 -10.7621 -71.3512 -15.2092 433.497 263.833 2024.64 -54.039 -0.839332 251.162 -726.711 1740.26
4812 2 -16.7135 -71.2737 -15.6716 -420.366 -263.27 -858.301 -225.679 -75.6052 203.789 -263.177 761.443
7396 1 -13.3018 -71.2136 -15.4909 250.426 252.421 1991.58 107.811 -56.1944 12.6178 -727.977 1752.99
7481 2 -14.4184 -71.1627 -16.5989 -120.936 -226.751 -802.632 -161.803 320.739 -223.677 -279.44 970.066
4990 2 -16.8674 -70.0993 -17.694 225.075 -174.969 -703.338 -548.953 242.117 -196.621 -255.745 1358.85
7486 2 -11.8106 -70.2574 -16.0873 143.319 2.99788 -1085.73 -83.5999 -48.0748 -184.359 -299.974 1219.69
4898 1 -17.2082 -69.9502 -14.9598 148.285 876.104 1300.65 526.995 13.2493 80.8662 -742.887 1368.31
7399 2 -13.7751 -70.3691 -14.2244 -361.913 -55.7731 -730.296 -240.556 -185.758 330.922 -273.078 973.576
2636 2 -17.5776 -57.2323 4.23092 -593.536 -472.139 -463.731 -50.9116 26.1586 -78.5373 -233.89 210.147
4901 2 -20.9083 -69.061 -15.158 166.955 -358.022 -374.401 -160.096 305.956 -248.951 -285.475 910.009
2400 2 -19.5362 -69.0484 -18.4573 77.6973 -605.765 -179.7 -43.2415 545.166 -13.8797 -278.059 1120.38
4904 2 -18.3358 -69.1019 -15.9304 -238.879 -503.784 -245.997 -394.935 -46.462 -31.013 -311.867 738.662
4912 1 -19.4292 -68.8493 -14.5042 683.311 636.812 1231.77 320.933 160.157 37.1538 -732.866 847.679
2316 2 -21.8663 -68.8337 -17.7057 -581.709 -470.772 -30.9445 -102.716 -119.367 -29.6291 -270.166 575.829
2494 2 -21.9388 -68.8662 -20.4147 84.3826 -334.964 159.681 -124.901 662.631 -219.399 -272.136 1312.08
2410 2 -23.4816 -68.3618 -15.5215 14.4305 -514.895 -676.906 -155.92 -125.285 -155.319 -284.964 764.58
2486 1 -20.9975 -68.5756 -19.0269 1100.76 778.188 1010.55 210.982 103.6 38.9186 -768.927 503.365
2402 1 -22.0137 -68.3184 -16.1269 334.651 877.447 1368.72 159.457 143.315 303.002 -765.901 1102.71
2416 1 -24.9479 -68.1437 -14.9271 500.033 919.39 1082.16 -107.265 -13.6811 22.438 -753.704 554.256
2407 2 -23.4815 -66.8413 -20.3254 -460.792 -660.572 -361.607 -133.885 -247.053 -27.4212 -269.809 555.609
4985 2 -20.6007 -67.0033 -19.1367 -545.024 -268.61 -548.007 187.838 -70.4159 17.6106 -277.387 445.974
2408 2 -21.6973 -66.7669 -16.2948 -387.084 -617.393 -739.219 -163.094 30.47 -153.158 -276.883 498.897
2401 1 -24.29 -66.0163 -19.2161 608.912 1067.25 525.424 110.028 -14.1258 110.784 -785.518 573.628
2409 2 -23.3646 -65.7477 -18.0138 -620.293 -568.98 -723.358 -74.4671 -165.042 -71.5039 -280.272 363.642
2403 1 -22.2564 -65.4215 -16.9179 625.735 467.414 868.688 88.7378 208.556 -153.674 -776.875 589.502
4897 1 -20.1597 -65.4442 -18.9584 597.845 871.037 917.641 -63.6901 183.601 484.068 -766.842 951.735
4905 2 -18.6072 -65.4083 -18.6127 -566.782 -564.75 -743.503 98.2125 -65.8039 -117.05 -278.665 338.56
2406 2 -21.0509 -64.8201 -17.769 -406.328 -533.573 -504.513 -102.903 -186.983 39.3946 -273.655 393.254
2507 2 -20.3732 -64.5903 -20.2868 -511.756 -244.032 -436.59 117.154 -69.5114 -193.539 -280.69 474.599
11 2 -24.5166 -64.6074 -19.9906 -452.695 -350.211 -380.411 62.3086 -84.1925 -241.862 -271.7 465.536
2412 2 -22.6887 -64.5205 -15.7316 -532.307 -619.744 -640.791 34.0836 4.12914 124.286 -267.864 244.552
2506 2 -18.2027 -63.4089 -15.2424 -394.009 -514.792 -430.613 41.3653 -199.415 -7.76561 -260.588 368.945
2501 2 -20.8429 -63.1543 -14.5869 -264.692 -449.906 -600.349 -86.8857 57.2291 40.0558 -264.236 349.411
2 1 -22.3612 -63.0685 -15.1346 658.097 712.444 913.569 67.005 243.54 -198.989 -804.511 603.763
7 2 -24.2321 -61.9993 -20.6052 -436.429 -393.649 -623.97 -22.1309 37.9435 3.4939 -263.413 225.499
4900 1 -18.0957 -68.9631 -17.6269 1186.36 840.763 1074.44 83.1329 -10.2635 443.753 -748.927 839.692
2512 1 -19.3695 -63.4826 -14.0574 965.721 793.54 946.893 64.548 -23.788 -255.037 -806.565 485.889
239 2 -25.1602 -54.5016 0.74562 -515.518 -312.375 -472.62 30.55 -7.08911 -133.509 -244.388 301.36
7529 2 -10.7673 -63.9582 6.69389 -344.152 -604.612 -420.94 -150.564 148.267 56.3464 -225.227 444.093
7397 2 -15.947 -68.9744 -14.7253 277.246 -365.381 -656.257 150.615 189.709 -45.0541 -278.643 930.922
7394 1 -11.8267 -68.5379 -16.0054 1008.59 443.891 1506.8 3.97901 93.9592 447.157 -743.722 1214.42
7402 2 -13.2524 -68.3056 -15.2121 182.494 -492.258 -862.713 -13.1965 -179.631 80.785 -274.893 979.488
4903 2 -17.4544 -67.512 -17.8083 -335.848 -137.287 -635.244 222.513 -73.5345 -193.964 -280.433 682.742
7400 2 -12.1765 -67.7682 -17.3798 -527.89 -69.4385 -564.841 -192.539 303.797 -384.574 -275.205 1029.69
7401 2 -13.7634 -66.6405 -19.1552 -120.355 -654.561 -18.018 170.431 423.113 27.3706 -272.939 988.423
7395 1 -12.4307 -66.4264 -18.2176 872.883 1063.04 883.863 119.831 -57.3531 597.141 -777.512 1075.58
7398 2 -11.148 -66.3559 -19.2113 -369.665 -769.841 -451.533 -206.204 -106.545 -36.5782 -272.068 547.458
7393 1 -14.8578 -66.1167 -20.2735 839.195 753.012 962.432 -107.895 171.429 468.633 -757.197 902.87
4899 1 -17.2446 -65.9216 -18.1133 304.637 858.677 1326.45 -35.7853 -90.102 184.347 -781.518 956.597
4902 2 -16.1395 -65.7358 -19.3174 -275.966 -495.895 -287.662 -1.66958 -371.484 -124.873 -267.514 711.844
4908 2 -16.9474 -65.1075 -16.7297 -439.722 -310.483 -305.227 52.1471 -26.9809 159.625 -267.833 322.787
7404 2 -12.3701 -65.1169 -17.19 -381.042 -115.199 -255.015 71.6104 113.316 163.258 -279.164 432.338
5003 2 -14.1819 -64.7674 -20.6629 -444.824 -729.09 -717.881 33.0703 31.9182 134.336 -290.186 371.782
4997 2 -15.7057 -63.7708 -14.7348 -641.964 -514.93 -566.011 49.5936 98.5616 43.6172 -254.017 233.424
5002 2 -13.2575 -63.852 -14.9524 -458.555 -452.223 -259.848 -83.3292 -250.525 191.945 -253.213 598.26
7493 2 -10.6646 -64.1115 -15.3895 -308.709 -464.403 -591.573 160.309 149.992 71.8698 -260.62 469.359
4994 1 -12.1014 -63.9528 -16.1325 935.241 569.23 1190.7 -142.248 -89.5161 31.9841 -806.068 616.876
2498 1 -16.8271 -63.7293 -15.8959 722.29 741.782 836.531 24.1026 95.9703 48.9345 -809.857 218.544
2504 2 -16.3412 -62.5891 -16.8875 -466.482 -283.332 -555.781 64.3054 -50.8299 -69.7734 -266.088 304.36
5000 2 -12.0792 -62.5036 -16.7804 -477.767 -339.621 -710.095 57.9403 32.9369 -36.3381 -263.953 349.919
4999 2 -13.6986 -62.2432 -20.0088 -705.735 -477.302 -892.991 -21.1257 -206.395 -56.2609 -269.584 518.318
7408 1 -14.3603 -68.8017 -14.1495 819.706 743.98 1216.63 -16.4464 232.995 -283.932 -772.497 773.863
2640 2 -17.6353 -54.6529 4.6392 -625.185 -550.808 -426.391 28.3456 62.8313 122.114 -231.024 298.755
2503 2 -19.326 -62.124 -19.9104 -378.127 -147.883 -270.959 92.7747 1.78573 242.326 -279.294 491.751
2544 2 -17.8384 -59.8361 4.59104 -590.747 -464.406 -450.655 173.977 124.048 205.55 -240.184 530.668
8 2 -22.3899 -62.1224 -16.4346 -537.297 -522.131 -398.489 -20.6327 -39.9021 -118.979 -259.621 256.738
9 2 -22.9555 -60.78 -18.6456 -450.359 -380.457 -433.233 -43.8003 90.9883 79.1019 -262.286 230.967
1 1 -24.2735 -60.7909 -19.6318 771.988 546.333 1008.95 116.539 120.576 -120.655 -814.475 537.194
6 2 -20.5087 -60.8619 -17.8328 -336.732 -421.747 -583.537 -65.7692 -176.694 87.8896 -257.524 420.679
2497 1 -19.3107 -60.8482 -18.8631 616.771 784.664 1224.89 24.2365 21.2068 1.75897 -805.468 546.822
3 1 -22.0773 -60.8286 -17.3358 959.144 863.904 996.47 83.5422 38.0682 58.3302 -814.198 222.512
107 2 -24.2563 -59.4862 -20.566 -489.207 -408.519 -509.889 -36.1582 -71.6513 -180.867 -250.469 355.063
2603 2 -19.4487 -59.4965 -19.7248 -478.405 -189.081 -577.393 -84.1844 48.9058 -106.737 -261.513 429.839
12 2 -22.2173 -59.6179 -16.2424 -664.614 -355.871 -297.197 -48.898 -52.0639 242.69 -245.516 555.77
98 1 -22.1524 -58.5245 -15.0404 951.928 875.618 890.125 -25.599 79.3806 -47.3561 -832.066 180.344
2596 1 -19.7026 -58.1069 -20.52 1004.63 746.653 988.012 73.6973 -31.044 -178.652 -813.314 421.278
103 2 -24.5003 -56.9407 -20.3886 -483.525 -448.546 -234.144 1.67227 65.0308 178.951 -259.534 404.298
104 2 -22.3617 -57.0757 -15.6937 -622.771 -247.352 -455.177 -113.987 134.24 -163.534 -246.77 528.563
2599 2 -20.1403 -57.0052 -19.4935 -620.197 -397.492 -459.425 82.3929 133.393 147.722 -256.248 422.91
105 2 -23.1609 -56.3294 -18.086 -546.856 -555.402 -513.252 58.1722 30.021 92.5802 -257.413 200.146
2601 2 -18.133 -56.1772 -17.999 -418.46 -485.506 -658.626 8.19586 1.44318 83.3614 -258.345 259.09
2593 1 -19.6737 -55.9352 -18.345 767.2 918.776 1011.82 44.5127 149.276 -88.564 -819.889 376.908
97 1 -24.4584 -56.0753 -19.0025 772.09 774.039 819.995 -10.1596 130.147 69.6617 -818.41 260.553
102 2 -20.7361 -55.9472 -17.2071 -248.407 -579.185 -839.214 -199.596 -9.70086 192.153 -251.973 702.573
99 1 -22.3256 -55.8832 -16.8345 847.626 804.309 1004.46 -64.7417 2.0474 -228.6 -817.6 450.141
2597 2 -20.6217 -58.7475 -14.551 -99.3982 -466.724 -664.23 -138.38 -93.7118 -7.37344 -250.923 574.841
2602 2 -17.8952 -58.9428 -14.5053 -398.992 -539.748 -606.389 91.167 -2.05734 -53.8559 -256.984 259.387
2505 2 -17.9492 -60.8517 -18.0219 -413.156 -417.897 -578.723 -35.5444 88.9287 39.0214 -265.793 242.349
5195 2 -14.0081 -54.655 -20.0056 -488.661 -266 -494.245 165.549 -72.5559 -72.9459 -260.56 405.991
5136 2 -11.3344 -54.5656 4.24083 -595.364 -478.718 -377.47 -3.81112 91.1674 144.644 -247.734 351.3
4998 2 -10.2929 -60.6746 -17.5919 -195.876 -419.299 -525.337 106.695 -187.912 -52.7472 -261.478 482.994
2499 1 -16.4737 -61.0876 -17.4831 857.324 918.82 1177.3 2.8323 -60.7486 -84.5649 -802.57 345.019
2502 2 -15.3137 -60.7424 -18.6279 -215.94 -429.759 -471.395 90.1039 -242.044 -93.4449 -261.447 531.66
4995 1 -11.8123 -60.9631 -17.0773 938.959 769.343 1111.73 -27.7307 65.2745 -176.967 -808.079 443.806
4993 1 -13.9365 -60.7861 -19.4246 879.957 670.068 1119.07 -43.1714 145.349 -30.2599 -805.048 472.367
5001 2 -12.7815 -60.4535 -18.3056 -315.864 -460.881 -183.647 -4.01435 249.071 -32.3855 -260.128 496.979
2508 2 -16.2751 -59.991 -16.2799 -573.063 -277.727 -479.914 -43.2387 -47.9071 228.09 -253.509 486.784
5004 2 -12.0545 -60.135 -15.7247 -584.8 -361.29 -403.662 -130.089 -18.402 198.225 -257.374 460.377
5099 2 -14.0078 -59.7158 -20.6345 -451.885 -249.426 -593.637 -74.243 57.9061 -155.287 -261.017 434.42
2594 1 -16.5594 -58.7326 -15.3466 963.016 912.557 953.677 44.4773 13.5661 -225.557 -827.904 401.592
5090 1 -12.0289 -58.7458 -14.9167 895.056 961.883 951.736 20.2902 25.0288 -243.46 -822.615 429.912
2600 2 -16.6015 -57.4021 -16.3181 -508.518 -171.301 -402.692 79.4101 -110.746 -157.03 -254.157 467.884
5096 2 -12.3686 -57.4511 -15.8454 -660.47 -75.3669 -407.178 60.1518 -91.5492 -110.832 -254.394 575.457
5095 2 -13.6161 -57.2035 -20.0866 -556.247 -367.017 -665.458 -35.389 -45.5421 78.7715 -247.671 311.44
2598 2 -15.6149 -56.3962 -18.6235 -524.943 -438.379 -452.85 126.988 -245.194 -65.8211 -248.641 498.183
2595 1 -16.6654 -56.2189 -17.4054 663.449 733.026 1227.11 9.96535 75.8955 -116.202 -828.038 584.314
5097 2 -13.2638 -56.0682 -17.9053 -648.624 -599.205 -869.749 -81.2293 -107.294 -99.6393 -249.358 382.598
5091 1 -12.1745 -56.0919 -16.7008 1001.43 814.706 970.517 45.0567 39.1583 -113.296 -829.883 281.508
5094 2 -10.7141 -55.9718 -17.3533 -440.004 -584.33 -738.983 75.3375 -28.3599 -5.25243 -247.735 294.264
5089 1 -14.1318 -56.0021 -19.1353 848.187 845.786 635.337 -37.7082 -214.101 -150.45 -826.568 504.469
2604 2 -16.3647 -54.7786 -16.802 -451.826 -205.312 -671.04 -95.1618 -99.8921 80.5788 -254.368 489.331
5093 2 -15.2801 -58.5455 -14.363 -336.996 -579.154 -507.003 -6.14957 131.674 50.252 -242.618 325.695
7589 2 -10.4445 -58.5474 -14.6388 -457.185 -611.263 -642.267 -23.6644 -68.6836 12.2847 -245.605 213.924
2537 2 -20.9856 -63.3551 6.47152 -502.193 -596.562 -398.617 -90.9873 92.4102 -21.8972 -233.227 285.134
4906 2 -18.337 -69.87 -13.8733 33.0445 -447.727 -951.838 -259.838 33.0543 10.0066 -266.557 966.31
10 2 -23.388 -62.6988 -14.0527 -557.247 -494.856 -683.428 30.918 0.194667 -31.0094 -261.368 182.864
5127 1 -11.7217 -55.5101 3.01199 923.876 1303.69 846.99 28.2079 38.2463 -72.4434 -846.646 449.324
4913 2 -21.0786 -69.1237 -7.27467 -91.0329 -671.051 -175.292 -103.162 259.917 45.1005 -231.457 731.675
19 2 -25.1959 -62.3363 -12.2616 -613.777 -464.461 -389.348 -19.5975 7.75262 207.937 -239.516 412.552
2422 2 -23.6103 -68.0491 -7.94459 184.687 -387.92 -814.684 -33.3388 -22.1678 -50.6553 -257.919 875.718
2414 1 -21.9937 -68.0285 -8.11045 977.548 1219.43 836.723 50.5208 14.8761 35.5266 -802.679 352.861
2328 2 -21.825 -67.7946 -9.72015 -759.637 -483.444 -93.1668 -83.6836 -108.615 -261.353 -243.841 773.116
4915 2 -19.3351 -67.5693 -13.6458 -517.042 -417.384 -151.099 62.2633 -38.8342 354.798 -274.071 707.939
2419 2 -24.7478 -67.2501 -13.6246 -463.33 -516.285 -15.2472 10.9019 106.784 143.898 -273.614 569.206
2421 2 -23.2228 -66.4504 -11.505 -405.61 -629.908 -285.795 53.3819 165.046 80.7173 -251.738 448.725
2418 2 -20.6231 -66.3825 -11.6545 -444.301 -548.115 -351.13 -11.6671 -220.241 19.451 -254.644 419.753
2415 1 -21.8793 -66.4663 -10.6278 1075.57 1168.35 545.382 41.3581 159.784 43.5984 -832.44 652.937
2413 1 -24.621 -66.3068 -12.3008 928.916 1144.73 883.482 41.0616 47.4638 -98.5396 -826.34 315.266
4909 1 -19.3025 -66.2874 -12.5423 932.855 833.13 948.696 79.3981 50.0627 -54.1232 -812.814 216.783
2424 2 -21.8069 -65.2424 -9.60786 -588.312 -428.035 -257.058 61.7513 -41.0394 237.469 -247.701 517.679
2519 2 -19.3062 -64.9971 -13.4731 -537.157 -327.381 -480.728 -59.281 -12.4872 -64.4573 -261.715 242.544
23 2 -24.652 -64.777 -12.911 -540.48 -256.388 -577.818 40.5044 -45.0355 -81.9664 -243.636 351.954
22 2 -23.2795 -64.4865 -7.54715 -149.768 -419.393 -356.936 12.0233 -434.709 -39.0688 -240.25 794.787
14 1 -21.8696 -64.1519 -8.35285 1213.57 903.572 1160.43 87.4007 168.877 44.2422 -845.162 443.62
16 1 -24.7711 -63.2538 -13.453 776.165 921.463 715.021 110.177 71.1678 -283.413 -829.556 571.24
20 2 -21.7946 -62.738 -9.02595 -574.158 -398.864 -579.283 39.9024 -163.331 -49.6429 -250.529 351.928
2515 2 -19.0211 -62.4342 -12.9376 -634.593 -459.669 -500.044 -35.2729 -38.7017 101.122 -263.281 253.119
2420 2 -20.8962 -67.0045 -7.47905 -122.926 -1138.35 -527.571 44.2095 52.7008 16.9419 -237.135 893.869
2428 1 -25.0849 -68.0942 -7.28871 951.285 1227.25 726.3 -138.35 57.3805 12.9282 -808.905 506.622
4918 2 -18.4907 -68.2028 -7.22204 -50.0976 -417.198 -554.243 -15.9934 -287.23 -2.74962 -262.705 672.419
2513 2 -20.7387 -64.1755 -7.17292 -438.933 -751.373 -126.762 -18.1417 190.239 36.8123 -236.545 637.361
4917 2 -18.037 -66.2756 -11.5842 -248.25 -565.194 -264.087 -5.44838 221.392 159.388 -256.364 564.828
7409 2 -15.8271 -69.0849 -7.73039 105.878 -1005.41 -434.888 18.6696 78.6991 -52.6198 -227.683 976.918
7414 2 -13.2661 -68.0964 -7.94623 -40.8102 -404.175 -705.058 -76.3956 -123.577 -13.2023 -263.055 629.079
7406 1 -11.6732 -68.0394 -8.09744 473.849 1158.91 1109.42 -135.963 -254.675 -64.083 -813.248 836.782
4910 1 -17.0744 -68.0585 -7.95314 715.577 1092.94 1004.5 -23.1728 158.703 149.887 -814.161 511.295
7411 2 -14.4083 -67.8427 -12.9223 -503.441 -72.0251 -457.952 -82.975 -41.8895 353.324 -263.897 754.319
5008 1 -14.4238 -63.8138 -13.8441 738.185 1059.13 1048.27 -94.9575 -67.9772 -42.4416 -821.359 382.042
7320 2 -11.36 -67.5038 -9.62917 -576.742 -574.067 -452.454 43.1158 -52.9696 -163.082 -241.505 330.005
4824 2 -17.3427 -67.6679 -9.52311 -634.604 -459.275 -211.903 -0.720036 -174.167 -207.325 -246.565 596.037
7405 1 -14.2655 -66.4344 -11.9888 607.018 943.68 910.996 91.7419 -33.1513 -13.9942 -821.075 364.061
7413 2 -12.8466 -66.3508 -11.3675 -645.068 -605.687 -625.512 135.609 -41.0744 190.317 -247.354 412.379
7407 1 -11.474 -66.2338 -10.5369 797.465 880.98 729.217 -88.3705 14.8578 -45.416 -842.878 218.198
4914 2 -15.4352 -66.4063 -10.9108 -377.239 -561.677 -418.9 -42.1116 -117.294 -3.70406 -262.815 273.321
4911 1 -16.9188 -66.3522 -10.3438 1099.08 1222.66 751.99 103.733 283.559 157.175 -820.755 725.431
5015 2 -14.3077 -65.2361 -12.9975 -550.344 -268.365 -612.505 57.009 -107.34 -21.5174 -252.824 382.896
4920 2 -17.1182 -65.0627 -9.33466 -557.61 -172.415 -115.001 -35.4102 -128.343 406.517 -249.746 850.137
7416 2 -11.4162 -64.9827 -9.60318 -530.593 -670.479 -550.944 85.0849 95.5584 87.2139 -248.998 298.441
5014 2 -12.9689 -64.1359 -7.72628 -312.388 -564.516 -430.652 47.2426 -228.374 43.3076 -234.3 465.32
2510 1 -17.0396 -64.0377 -8.02174 1082.41 1141.07 1171.39 -1.48276 148.502 -108.708 -843.945 328.264
5009 2 -15.6003 -64.0464 -7.27492 -340.812 -754.679 -470.094 76.8051 142.131 193.686 -232.568 570.384
5006 1 -11.5192 -63.9304 -8.40335 1017.45 1184.49 1019.73 73.9626 39.0799 -290.327 -854.842 548.99
5012 2 -11.4241 -62.4057 -9.10693 -603.151 -141.903 -663.121 25.0719 -127.226 -54.905 -237.816 550.904
5011 2 -14.465 -62.561 -12.7782 -491.799 -135.197 -363.111 -6.79441 -105.811 289.062 -254.038 618.249
2516 2 -17.1902 -62.5165 -8.56805 -600.487 -303.121 -491.364 76.2256 -58.0944 -67.3121 -247.179 330.203
4916 2 -15.9377 -67.026 -7.49563 91.6624 -1132.7 -577.362 -91.0888 -85.57 -134.888 -221.157 1108.59
9905 2 -10.6776 -69.0541 -7.36883 -78.6271 -770.417 -324.955 193.128 356.04 85.4586 -231.484 939.65
7420 1 -14.6501 -68.1154 -7.17018 648.536 1193.22 1069.27 -131.148 165.631 -43.3674 -818.225 619.734
7505 2 -10.4003 -63.9303 -7.25804 -340.138 -778.988 -272.414 -69.9507 176.86 99.2237 -232.685 604.111
7412 2 -10.9408 -66.9218 -7.1942 -43.189 -879.611 -603.685 3.26697 189.184 -6.57138 -226.04 807.762
18 2 -20.9606 -61.728 -11.2725 -333.58 -498.344 -444.006 37.7512 -193.759 7.12563 -252.252 371.755
106 2 -23.3507 -58.7828 -14.0602 -509.218 -588.447 -615.322 10.8425 -18.572 39.7184 -257.292 123.486
2517 2 -18.4592 -61.3032 -10.5729 -336.368 -550.938 -320.262 9.53918 179.666 66.8573 -250.118 400.348
21 2 -23.4604 -61.3716 -10.5256 -205.542 -561.831 -511.34 -107.03 61.8906 31.7348 -239.177 400.476
15 1 -21.8805 -61.4797 -10.026 1035.51 872.104 917.031 74.491 305.919 -51.6177 -838.117 571.646
2509 1 -19.4496 -61.3499 -11.867 1204.82 961.052 845.95 113.668 78.8028 -220.398 -816.449 551.221
13 1 -24.9203 -61.085 -11.1607 795.32 950.765 727.275 96.2659 390.757 138.035 -841.847 763.155
2615 2 -19.3894 -59.8872 -12.5772 -544.637 -220.244 -464.164 51.5325 -80.7238 -109.302 -251.994 385.952
24 2 -21.616 -60.0191 -9.43851 -617.457 -141.467 -570.814 -159.923 -156.593 2.95414 -244.639 597.375
119 2 -24.8143 -59.8043 -12.045 -563.407 -592.404 -548.935 -8.80238 -73.8129 44.7894 -254.402 155.131
112 1 -24.6996 -58.7665 -13.247 764.531 1081.18 977.826 70.7966 98.2094 12.0825 -824.92 350.19
2608 1 -19.2362 -58.7395 -13.6993 854.674 574.88 1088.48 64.8616 237.664 -161.786 -833.813 677.472
124 1 -24.6104 -58.527 -7.4483 942.43 1164.66 733.336 149.777 243.836 29.6113 -843.196 622.794
110 1 -21.95 -58.4625 -8.99556 869.759 919.805 776.568 -106.601 65.1661 16.7673 -844.225 252.047
2609 2 -20.9789 -58.2572 -7.78123 -487.04 -681.114 -538.472 -36.8259 71.2134 -110.029 -237.64 293.138
118 2 -23.4503 -58.3512 -8.48932 -648.811 -591.912 -612.772 -53.3936 -93.7371 4.08749 -246.158 193.516
2614 2 -18.3918 -58.1057 -7.66945 -568.924 -681.827 -484.946 -52.5409 -74.9094 198.055 -246.918 414.818
116 2 -21.7393 -57.3691 -10.0984 -608.912 -155.965 -622.846 16.9037 3.90459 -6.71837 -251.414 461.199
115 2 -24.8805 -57.1853 -12.7262 -499.926 -95.6464 -572.91 -70.637 2.65801 133.053 -249.201 516.114
2611 2 -19.0832 -57.3104 -13.0738 -600.029 -374.385 -681.756 -2.37624 -35.0009 53.4949 -243.002 297.175
111 1 -21.8311 -55.8571 -10.7551 801.467 1040.92 970.201 -23.2083 190.022 -171.668 -827.912 493.718
2605 1 -19.3864 -55.7594 -12.6142 944.482 878.185 955.924 -66.7343 185.379 -44.9667 -825.047 357.502
114 2 -20.8392 -55.736 -12.0017 -622.328 -537.682 -484.583 100.513 -85.4605 30.7006 -253.535 263.677
109 1 -24.8275 -55.7869 -11.9611 818.333 846.265 1011.45 84.1975 226.581 -55.8457 -832.763 466.176
117 2 -23.2947 -55.6663 -11.3385 -291.73 -543.634 -510.211 4.94812 168.624 56.4386 -246.698 388.696
120 2 -21.4637 -54.7205 -9.66875 -574.767 -350.47 -557.285 81.1749 -35.0677 135.351 -254.845 353.709
2613 2 -18.2811 -55.5161 -11.4341 -199.129 -643.959 -339.278 -12.9978 157.74 30.067 -255.277 482.739
131 2 -24.7782 -60.1153 -7.05687 -672.862 -208.647 -453.952 44.6256 -173.196 -61.7918 -241.924 518.86
7308 2 -10.4291 -70.3213 -13.9394 -607.789 25.5844 -641.736 258.379 173.825 302.46 -258.727 994.578
5207 2 -15.0562 -54.6774 -13.0268 -470.562 -202.554 -520.76 28.7482 -17.8692 -121.832 -251.444 368.467
2514 2 -15.8521 -61.6891 -10.6715 -249.423 -494.448 -362.455 -24.0107 -268.448 166.676 -242.233 588.543
5013 2 -13.2338 -61.5696 -10.7102 -483.943 -512.915 -539.558 11.8164 125.454 52.0573 -242.054 241.011
5010 2 -10.7877 -61.582 -11.4618 -462.131 -600.794 -467.971 2.73358 -86.999 34.0053 -242.874 211.305
5005 1 -14.553 -61.455 -11.6006 922.502 864.185 1071.57 -120.78 59.2682 -156.622 -838.313 402.749
5007 1 -11.7094 -61.3369 -10.2086 840.655 924.642 897.632 84.7404 53.1954 -94.9355 -849.707 250.17
2511 1 -17.1308 -61.3505 -9.64514 1172.48 671.47 1060.23 -154.819 -48.8588 -83.1537 -840.625 554.241
7601 2 -10.7022 -58.1606 -7.92202 -454.558 -653.014 -285.235 56.2252 222.564 124.298 -229.838 553.259
5111 2 -14.7405 -59.9847 -12.2365 -527.894 -296.159 -593.647 -33.0423 66.9927 45.9496 -253.404 310.38
5016 2 -11.56 -59.7574 -9.85464 -498.42 -235.226 -566.656 17.624 31.4311 33.9734 -246.716 315.032
2520 2 -16.9861 -59.9346 -8.97647 -577.214 -232.434 -546.664 -36.0555 -103.642 146.939 -249.843 458.445
5098 2 -12.9052 -58.7909 -13.5899 -629.42 -548.973 -490.538 34.2898 -115.17 82.596 -255.517 279.952
5104 1 -14.3627 -58.65 -13.01 800.317 590.221 1006.45 -5.61311 180.254 -214.69 -830.641 604.802
2606 1 -17.097 -58.3579 -8.54731 947.281 1153.99 1078.67 -64.8468 234.518 -172.073 -839.342 547.057
5116 1 -14.2165 -58.3087 -7.32554 979.56 1063.43 906.671 17.0921 30.0205 -126.524 -854.377 264.697
5102 1 -11.7131 -58.3176 -9.17929 955.527 923.566 980.336 -50.7162 81.07 -19.8635 -855.405 176.202
5110 2 -13.1837 -58.1554 -8.54952 -473.016 -614.45 -446.249 -86.2458 -140.938 131.604 -237.886 397.957
5105 2 -15.7274 -57.9874 -7.72218 -301.205 -647.076 -435.355 119.486 91.1813 123.388 -241.184 452.406
5108 2 -11.5375 -57.0849 -10.1678 -573.27 -387.139 -599.202 -34.5621 19.9483 -76.8557 -241.416 250.283
5107 2 -14.5447 -57.2796 -12.2924 -593.71 -381.42 -756.493 -50.8124 -19.4438 -66.2902 -254.054 358.03
2612 2 -17.2583 -57.2945 -9.79681 -630.114 -126.192 -428.877 -98.0256 47.9223 -207.16 -238.71 597.903
5103 1 -11.5176 -55.6611 -10.9415 909.525 951.159 1255.26 -4.54465 149.982 -186.139 -835.336 527.597
5101 1 -14.5774 -55.7307 -11.8959 904.98 856.426 1080.06 -43.2611 128.307 -165.193 -827.978 422.35
5109 2 -13.0188 -55.4067 -11.526 -26.8584 -540.549 -493.303 29.5954 135.004 90.7118 -251.998 569.062
2607 1 -17.1833 -55.7385 -10.2932 989.196 1076.4 820.186 19.1563 112.239 -123.125 -840.202 367.804
2610 2 -15.6531 -55.5434 -10.7291 -260.727 -660.282 -654.229 -13.9674 -12.4033 121.064 -245.555 449.754
5112 2 -11.1212 -54.6099 -9.75619 -458.363 -450.003 -351.523 8.09439 1.03124 264.451 -243.492 469.674
2616 2 -17.358 -54.8006 -9.00967 -691.049 -336.154 -369.954 102.848 161.421 191.362 -242.093 578.669
5106 2 -10.4426 -55.7021 -12.1393 -417.984 -461.088 -576.147 -41.1547 -150.1 135.313 -249.244 384.26
7332 2 -12.0625 -69.5147 -2.2036 -484.611 -291.557 -456.562 41.3333 -12.1316 -168.056 -120.987 350.623
2518 2 -18.1659 -64.4326 -6.90503 -524.156 -418.799 -252.131 52.1492 -313.912 28.384 -245.984 602.192
4924 1 -19.9914 -68.0334 -6.65426 751.055 1233.06 766.192 90.2054 -65.6526 27.0818 -811.591 514.595
2431 2 -24.7278 -67.8239 -5.80306 -772.162 -447.345 -430.636 47.1402 49.2343 239.632 -241.441 545.364
4927 2 -19.9238 -67.6274 -5.11239 -637.255 -583.232 -145.519 68.1895 52.1384 246.269 -248.54 649.776
2432 2 -23.1071 -67.1677 -1.0885 -522.847 -420.878 -60.8584 119.099 -326.65 -158.37 -266.39 783.977
2433 2 -23.6369 -66.7313 -3.63149 -381.357 -678.652 -271.235 -49.6098 64.5755 87.5409 -245.232 419.683
2425 1 -24.8677 -66.7007 -4.59252 1169.11 1447.95 513.258 118.924 62.1308 -216.788 -837.888 941.157
4929 2 -18.3028 -66.6124 -3.08025 -78.3603 -520.362 -278.31 1.41833 318.334 93.4795 -242.218 690.796
2430 2 -21.0228 -66.6432 -2.95015 -3.54638 -597.449 -259.954 50.5917 -462.132 -41.1429 -242.527 958.978
4921 1 -19.7195 -66.5533 -3.92316 1275.93 1251.78 872.087 61.0838 211.149 -242.906 -845.781 689.836
2427 1 -22.5766 -66.3708 -2.39043 1376.2 910.419 872.702 20.039 211.04 65.6992 -832.25 619.443
35 2 -24.7674 -65.2854 -5.48533 -637.078 -141.745 -3.27295 21.9799 -174.796 -375.052 -243.312 920.989
2531 2 -19.6665 -65.1654 -4.83753 -616.125 -276.709 -44.8121 33.6105 -134.163 -317.951 -237.266 779.972
2436 2 -22.6547 -64.8136 -2.19684 -647.928 -198.103 -532.499 -2.54971 -30.2301 -73.4867 -250.335 427.441
28 1 -24.6613 -64.1578 -6.6962 1336.49 1154.28 1119 46.0061 259.358 -22.8424 -845.658 500.588
2524 1 -19.5165 -64.1033 -6.1004 1268.64 1039.34 1010.35 -99.8308 251.804 -62.5524 -852.974 540.296
26 1 -22.5859 -63.1644 -2.09058 1032.62 1019.45 852.76 -20.2482 229.317 155.087 -839.574 511.175
2536 1 -19.6913 -63.0704 -0.83887 858.353 1069.77 899.276 -122.484 43.4673 -90.8013 -850 336.346
2530 2 -18.3824 -62.9447 -1.75455 -309.22 -543.327 -556.532 28.5991 -99.9475 16.1364 -239.245 302.118
2525 2 -21.0506 -62.7764 -1.65379 -285.963 -534.595 -618.125 71.3485 -3.24232 -15.5913 -235.635 324.956
31 2 -24.4192 -62.6166 -6.10333 -659.449 -98.0111 -551.583 139.47 -78.5242 50.8938 -238.359 592.379
34 2 -23.6394 -62.6512 -1.04197 -558.882 -667.368 -623.334 -35.0883 -65.3416 103.528 -246.536 239.973
2527 2 -19.5245 -62.5806 -5.53462 -633.869 -257.091 -526.885 1.51413 -115.902 94.7875 -240.381 424.687
32 2 -22.7394 -62.2756 -3.38351 -742.485 -112.669 -672.104 127.228 -197.31 -138.392 -235.857 761.648
2543 2 -19.7653 -64.5602 -0.201199 -499.327 -499.345 -535.891 56.9735 -77.7837 -117.864 -248.514 266.272
40 1 -24.9189 -63.0952 -0.215819 1121.49 905.885 818.453 -57.3623 211.346 -17.7604 -824.334 466.689
7418 1 -12.385 -68.7886 -0.903654 1332.6 816.441 1380.09 -6.98286 -46.3604 258.455 -942.042 707.235
7423 2 -14.3605 -67.782 -5.65069 -711.621 -417.687 -334.183 146.477 -133.871 397.16 -234.158 842.172
4928 2 -16.1804 -67.3296 -1.35427 -424.491 -503.887 -152.815 -109.277 132.77 -203.577 -239.402 560.999
7424 2 -12.1184 -67.2154 -1.2354 -649.148 -692.347 -756.739 96.7516 16.0572 -156.478 -204.979 333.326
4926 2 -15.8284 -66.5018 -3.87963 -439.777 -639.349 -286.903 140.62 -247.459 -24.1825 -235.713 581.801
4923 1 -16.7608 -66.4389 -2.55338 1174.75 1083.79 1052.19 -9.73615 195.332 -8.3976 -856.553 356.521
7425 2 -13.2038 -66.5862 -3.5688 -396.748 -833.08 -321.255 150.488 71.7604 112.718 -224.329 592.055
7417 1 -14.3939 -66.5152 -4.60788 1262.71 1408.15 610.049 -207.304 152.259 -345.213 -867.325 1047.87
7419 1 -12.16 -66.1547 -2.37081 1177.27 1111.3 1039.11 -221.045 48.2775 70.8237 -886.84 427.725
7422 2 -10.6555 -66.1015 -3.07853 -234.15 -673.035 -416.186 -61.6117 -242.795 195.049 -220.691 669.502
5027 2 -14.1238 -65.1949 -5.56913 -688.72 -299.786 -417.216 146.457 -222.151 -22.633 -234.499 577.344
4932 2 -16.5806 -64.8917 -1.99719 -531.349 -263.968 -575.372 117.814 -73.6038 170.283 -236.306 479.67
7428 2 -12.6272 -64.691 -1.9066 -466.611 -303.475 -552.497 82.9986 -52.8843 56.0925 -235.302 294.103
5020 1 -14.1463 -63.9819 -6.58565 1150.92 874.5 1034.51 10.3041 17.9148 -115.774 -864.038 315.077
2522 1 -16.8004 -63.3222 -1.86547 1096.61 908.049 1180.7 -223.276 224.894 58.9032 -853.796 608.424
5018 1 -12.3676 -63.1125 -1.61731 867.319 1121.34 1019.71 -125.742 70.3456 -12.3504 -864.962 334.326
7517 2 -10.9487 -62.9651 -0.92497 -415.848 -631.897 -440.876 19.6768 141.156 23.1768 -237.885 323.179
5021 2 -16.0148 -62.8001 -0.499083 -396.247 -554.658 -194.705 93.3482 245.734 75.1716 -234.189 567.353
2528 2 -16.3403 -62.5023 -3.16129 -720.174 -317.147 -431.866 75.23 8.8543 -75.3209 -235.336 404.463
5023 2 -13.9194 -62.4973 -6.02422 -640.477 -377.421 -587.16 81.2204 38.6234 -30.1335 -243.677 291.557
5024 2 -12.5436 -62.1141 -2.84584 -575.234 -191.256 -655.02 54.8531 57.7311 -22.9207 -231.67 452.816
5026 2 -13.475 -62.5849 -0.547568 -476.852 -603.425 -464.062 52.0682 -163.283 121.483 -225.584 387.55
7426 2 -13.9935 -68.8438 -0.525701 89.7448 -512.201 -720.68 -128.866 6.57122 -169.573 -207.965 817.012
7432 1 -15.4121 -68.102 -0.110149 1446.21 1028.69 1094.24 -197.909 144.638 -26.1742 -872.349 577.553
2634 2 -15.883 -55.6466 3.05109 -637.231 -646.018 -516.211 42.2722 -126.24 53.6594 -234.283 278.558
25 1 -24.5041 -61.0622 -5.79339 1068.47 922.35 913.905 28.121 63.0502 -21.8046 -849.284 195.909
2521 1 -19.4426 -61.048 -5.10906 1048.64 873.266 1138.57 -30.3574 148.732 -124.704 -857.438 412.79
27 1 -22.2757 -60.7379 -3.83414 944.945 1241.43 670.053 10.1615 133.221 -39.487 -853.34 550.641
30 2 -20.7604 -60.7219 -4.25316 -555.06 -657.869 -584.378 74.131 -137.753 -5.24655 -236.814 286.201
33 2 -23.1858 -60.466 -5.10555 -565.897 -691.743 -468.677 21.4103 1.86168 105.185 -239.62 268.516
2620 1 -19.675 -58.4302 -6.8185 1063.96 1244.15 740.229 -170.961 40.0706 -88.8536 -843.04 558.379
2627 2 -19.4721 -59.9983 -6.34685 -610.292 -95.4963 -422.496 -57.3411 50.231 -73.5183 -241.145 487.087
36 2 -22.4919 -59.6887 -2.67109 -731.829 -385.714 -295.542 47.8802 -65.3487 122.047 -242.337 472.77
2621 2 -20.874 -58.917 -0.855215 -436.859 -550.444 -756.967 50.6421 -28.9074 -25.4918 -242.414 301.929
122 1 -22.361 -58.7798 -1.31416 959.023 1054.11 1122.78 -139.449 -17.767 -17.4606 -852.025 283.703
127 2 -24.2294 -57.5443 -6.22339 -705.82 -484.225 -516.86 80.9146 25.9094 82.8507 -244.412 291.867