ITEM: TIMESTEP
200000
ITEM: NUMBER OF ATOMS
29952
ITEM: BOX BOUNDS pp pp pp
-2.5615833775063237e+01 3.5601128117061187e+01
-6.8116323151277598e+01 7.8101617485476325e+01
-2.1035324467156940e+01 3.4903177627851115e+01
ITEM: ATOMS id type x y z v_StrAtomXX v_StrAtomYY v_StrAtomZZ v_StrAtomXY v_StrAtomXZ v_StrAtomYZ c_PEAtom v_VMS
1 1 -24.6245 -63.8808 -19.6801 1062.22 1061.55 927.574 24.629 -17.1846 70.5239 -826.57 188.853
2 1 -22.1687 -66.6999 -16.2828 1256.22 1015.89 988.217 -29.2393 85.4808 25.0465 -820.59 302.565
3 1 -21.9703 -63.9374 -17.8896 954.374 992.249 855.451 12.7841 29.5553 -15.7175 -826.057 137.182
6 2 -20.4826 -63.9116 -18.4686 -474.457 -656.58 -441.091 66.1829 -92.8668 7.64049 -255.496 282.041
7 2 -24.8571 -65.3269 -20.4419 -533.691 10.7043 -456.025 29.199 -12.3684 124.838 -251.751 556.675
8 2 -22.2524 -65.3075 -17.0686 -562.568 -94.9267 -475.97 109.825 -103.928 -72.783 -259.682 519.779
9 2 -23.1614 -63.9112 -18.9767 -203.592 -660.925 -509.486 -23.5442 150.836 1.74121 -247.919 482.448
10 2 -23.2 -66.7298 -14.986 -505.559 -614.731 -175.101 55.5934 -182.443 -20.6728 -247.967 517.309
12 2 -22.1896 -62.5589 -17.0649 -625.607 -64.4578 -516.394 -64.3078 -32.4253 77.0909 -255.089 546.737
107 2 -24.7214 -62.5974 -20.6423 -597.714 -69.8248 -494.241 -47.4981 64.4066 -43.4123 -258.439 509.527
2497 1 -19.0665 -63.9371 -19.1732 868.138 1148.6 948.8 -78.4864 164.395 -82.9899 -831.125 427.509
2501 2 -20.6477 -66.7768 -15.558 -81.6829 -582.603 -259.262 3.24096 317.649 35.8951 -244.568 707.178
2503 2 -18.8568 -65.3887 -19.8329 -566.913 84.447 -618.685 -82.4139 -74.8552 33.731 -247.779 708.005
2603 2 -18.9218 -62.5054 -19.9457 -585.739 41.5252 -545.57 62.4933 -72.9117 -25.421 -257.515 632.045
2512 1 -19.476 -66.668 -14.4261 1087.9 1114.92 1042.44 41.2328 12.1703 -161.653 -831.472 296.589
2500 1 -18.9325 -66.7552 -20.7793 775.445 1080.85 861.036 86.7095 62.6852 100.957 -832.162 373.337
2506 2 -17.9667 -66.7053 -15.0764 -176.846 -605.38 -494.873 -4.28069 -227.074 29.8439 -244.225 553.093
2505 2 -17.8444 -63.9186 -18.0468 -353.669 -743.071 -401.135 74.5804 191.537 38.8324 -233.549 516.404
5 2 -25.596 -66.8137 -14.3209 -543.013 -531.857 -363.696 27.5599 227.785 28.8843 -257.376 436.712
2412 2 -22.3671 -68.0974 -17.0989 -491.36 157.95 -483.651 -57.5465 -89.9337 147.403 -255.89 718.359
11 2 -24.7084 -68.1503 -20.5278 -664.016 220.794 -519.08 -3.38358 37.4625 -120.658 -244.78 850.631
2498 1 -16.4731 -66.6934 -15.6691 842.035 1117.87 1173.8 -64.1882 -6.99865 -132.461 -835.172 399.735
2499 1 -16.4068 -63.8693 -17.3414 824.152 1156.55 912.802 49.9178 50.7444 49.7531 -835.335 333.93
2502 2 -15.3594 -63.8611 -18.5421 -465.685 -703.161 -337.66 -64.3594 -86.1547 47.919 -252.722 380.488
2504 2 -16.3398 -65.3143 -16.5891 -546.033 90.0876 -494.962 68.0874 -47.6036 -149.261 -246.861 679.936
2508 2 -16.2956 -62.5365 -16.3993 -530.483 -76.7837 -490.152 -79.5502 -14.4397 90.3065 -256.149 482.957
4993 1 -14.2123 -63.8199 -19.6581 1053.47 1502.45 793.28 100.049 34.9311 -38.7471 -812.419 651.381
4994 1 -11.8873 -66.6619 -16.1543 991.158 890.076 906.152 -19.06 127.647 27.9572 -832.547 247.32
4995 1 -11.7494 -63.9654 -17.7955 804.182 1199.48 938.415 17.69 -91.3465 60.574 -819.534 397.737
4999 2 -14.3609 -65.3032 -20.4693 -481.516 262.994 -318.489 86.4814 67.2345 301.67 -254.178 876.647
5000 2 -12.1441 -65.3353 -17.034 -489.034 -232.468 -379.351 -12.6809 26.362 -159.955 -260.286 359.221
5001 2 -12.7478 -63.6466 -18.9894 -317.343 -605.861 -384.847 8.41548 114.423 2.08772 -258.091 328.37
5002 2 -12.9308 -66.744 -14.9525 -533.553 -612.277 -430.101 4.33914 -59.8966 15.2693 -251.226 191.214
5004 2 -11.7863 -62.5717 -16.8734 -549.869 252.801 -472.923 -16.0131 -75.2042 183.651 -250.603 841.045
5099 2 -14.4588 -62.3788 -20.5253 -590.152 248.932 -447.322 -29.5604 20.4982 -142.46 -251.511 818.158
4997 2 -15.4626 -66.6224 -14.3958 -438.323 -603.111 -307.337 16.6767 162.256 -15.2503 -246.746 382.636
4998 2 -10.2278 -64.1076 -18.3513 -293.032 -696.332 -475.135 16.1828 -133.5 19.3985 -251.998 421.606
5003 2 -14.5706 -68.0558 -20.463 -581.812 30.9622 -526.199 22.6018 -42.4453 -86.1046 -253.4 611.299
98 1 -22.0537 -61.1928 -16.2157 1099.4 1151.39 878.504 51.1844 -17.7872 -70.6175 -821.08 294.533
103 2 -24.6584 -59.6957 -20.5421 -571.725 414.999 -473.798 57.3418 -22.4225 141.471 -251.553 978.776
104 2 -22.2048 -59.7365 -16.9828 -562.056 185.131 -449.445 49.0711 -61.5086 -132.295 -254.459 746.932
106 2 -23.0198 -61.2775 -14.9312 -449.429 -589.265 -173.862 -9.41165 -158.501 -2.40447 -250.834 457.905
2597 2 -20.5005 -61.1363 -15.6247 -159.711 -608.22 -323.32 37.9859 216.775 33.6496 -249.389 550.68
2599 2 -18.906 -59.7104 -20.0377 -505.31 102.345 -475.632 -92.915 -82.4387 122.058 -251.17 665.639
2596 1 -19.0437 -61.1479 -20.7868 1089.41 1029.18 935.229 58.4562 10.8787 28.532 -828.599 176.525
2608 1 -19.486 -61.2054 -14.3715 927.64 1101.32 1021.77 -64.5618 35.4179 126.954 -823.136 295.46
97 1 -24.5173 -58.2325 -19.7706 1073.23 1243.65 925.295 -39.9355 -102.17 124.075 -827.608 398.025
99 1 -22.0723 -58.3067 -17.7711 884.443 1100.29 871.793 2.01802 -76.7323 -42.9599 -832.248 269.617
102 2 -20.5858 -58.2852 -18.4419 -420.745 -615.327 -413.669 -37.9704 -156.273 49.5697 -249.344 352.49
105 2 -23.1245 -58.3117 -18.9454 -597.201 -695.252 -382.8 -7.08073 125.661 -43.3215 -243.99 360.218
108 2 -22.2086 -56.9071 -16.9834 -567.702 81.0865 -502.365 55.4199 36.5935 89.0364 -254.9 647.934
2593 1 -19.1712 -58.3226 -19.147 787.63 1260.56 908.487 -110.506 -92.4857 40.4805 -828.828 498.321
2699 2 -19.0379 -56.8728 -19.9654 -596.383 167.702 -424.995 129.227 -73.6207 -165.491 -249.358 794.207
203 2 -24.617 -56.7829 -20.484 -589.52 19.7391 -557.672 -47.077 63.9292 -40.6168 -254.077 613.731
27558 2 -25.6346 -58.2024 -18.5441 -382.082 -616.181 -104.091 16.5393 -236.112 -4.57333 -241.766 604.392
2602 2 -17.9319 -61.3352 -14.8524 -182.826 -606.071 -439.255 65.335 -137.721 -68.7258 -250.019 469.294
2601 2 -17.9686 -58.3332 -18.1256 -473.306 -661.775 -528.472 36.8467 95.6895 -28.2785 -249.912 249.215
2594 1 -16.5092 -61.1636 -15.599 807.086 1228.14 901.47 94.7845 -72.22 -164.057 -826.694 519.421
2600 2 -16.4289 -59.7223 -16.4674 -466.982 223.856 -367.572 33.206 -65.0869 -263.071 -252.471 801.311
5090 1 -11.6468 -61.0963 -16.151 1042.23 1195.32 803.212 -64.931 -20.0131 46.7167 -828.793 370.885
5095 2 -14.1741 -59.5085 -20.5813 -519.955 329.394 -349.826 -77.1729 -116.812 248.195 -246.207 921.652
5096 2 -11.7363 -59.6871 -16.9214 -574.74 41.6708 -633.443 30.1685 18.2048 30.0409 -255.096 652.706
5098 2 -12.7228 -60.9775 -14.9642 -389.907 -741.283 -349.111 2.04941 -113.282 15.3889 -246.179 422.712
5093 2 -15.308 -61.0434 -14.5623 -370.102 -679.893 -386.524 1.71286 147.092 48.8582 -251.006 404.019
2595 1 -16.5553 -58.3389 -17.3715 896.011 1147.73 965.09 -33.2581 37.7195 -27.1867 -823.772 246.069
2598 2 -15.4274 -58.3649 -18.5206 -444.319 -599.292 -304.674 25.2109 -162.299 -33.8737 -252.874 386.691
2604 2 -16.3579 -56.951 -16.5275 -555.865 -22.2976 -481.272 95.2591 60.3874 84.5229 -259.398 556.824
5089 1 -14.2324 -58.1846 -19.5827 1053.47 1147.59 873.261 -32.4533 31.0742 123.929 -828.072 332.303
5091 1 -11.6638 -58.2415 -17.6594 756.656 1107.16 984.529 0.0747011 19.8072 34.6177 -830.093 315.726
5097 2 -12.8243 -58.2141 -18.774 -420.434 -667.718 -409.759 -27.2813 135.258 -58.18 -243.228 362.18
5100 2 -11.8603 -56.852 -16.8129 -523.882 190.1 -524.332 -86.7611 -7.54436 91.279 -253.999 746.887
5195 2 -14.3267 -56.7511 -20.3403 -507.275 -101.282 -400.23 84.0832 -92.053 -144.649 -258.356 492.17
7589 2 -10.152 -61.1472 -15.4845 -437.082 -697.134 -385.551 6.82229 118.547 12.1632 -241.712 355.566
5094 2 -10.2856 -58.19 -18.4426 -779.33 -677.169 -555.257 -68.3555 -34.5032 52.7514 -245.642 252.371
2692 1 -18.9771 -55.4681 -20.8096 1123.2 1275.73 916.094 96.278 -68.5492 21.838 -823.746 375.611
193 1 -24.5276 -52.6323 -19.6321 1099.03 1094.69 793.049 77.394 -0.798772 -21.943 -832.891 334.26
194 1 -22 -55.4963 -16.1542 1116.31 1163.37 869.241 30.5391 -24.9054 44.1618 -826.107 292.222
195 1 -21.8835 -52.7066 -17.8119 764.584 1298.37 1009.21 57.5687 207.316 -65.0784 -828.244 604.796
198 2 -20.4584 -52.8626 -18.4096 -664.816 -683.067 -508.665 37.7737 -48.6495 -19.8086 -250.942 200.31
199 2 -24.6841 -54.0512 -20.4295 -584.705 -138.498 -480.597 10.457 -5.51044 88.0132 -251.262 432.601
200 2 -22.1901 -54.071 -16.9286 -588.279 144.297 -434.086 -7.67932 7.08274 -129.105 -252.731 705.561
201 2 -23.0372 -52.6161 -19.0018 -238.84 -653.855 -271.103 -72.5694 190.953 -18.3497 -244.109 534.87
202 2 -23.1222 -55.4885 -14.964 -291.155 -692.319 -324.516 -27.1295 -174.027 29.252 -248.325 494.261
204 2 -21.9598 -51.2327 -17.0667 -575.259 69.4762 -507.173 -53.2712 -74.687 122.12 -245.663 668.139
299 2 -24.6718 -51.2913 -20.5238 -597.658 111.362 -363.798 -17.652 -35.4067 -169.149 -253.924 694.348
2689 1 -19.0194 -52.7573 -19.0721 771.75 1073.82 933.276 34.2845 8.85105 -102.238 -834.273 321.972
2693 2 -20.5181 -55.4727 -15.5189 -286.04 -585.303 -268.383 -1.92777 217.347 -5.18432 -248.178 486.791
2695 2 -18.7945 -54.0525 -19.951 -575.018 -43.1342 -477.044 13.1968 35.742 107.676 -254.583 528.702
2795 2 -18.8945 -51.2979 -19.8514 -512.941 -16.0236 -497.505 32.6755 -1.92913 -167.55 -249.511 571.776
2704 1 -19.3364 -55.5776 -14.3627 715.999 1124.77 1104.14 6.12263 163.776 -33.9492 -828.675 493.078
197 2 -25.6468 -55.6496 -14.3307 -390.348 -571.008 -274.426 32.7099 228.367 -49.0569 -249.511 483.635
2800 1 -19.3849 -50.0183 -14.3116 862.36 1031.57 987.901 -2.95197 128.233 85.5133 -826.095 307.317
2794 2 -17.9818 -49.9395 -15.0626 -590.432 -673.799 -461.596 3.18912 -139.506 -16.0004 -250.551 305.735
2697 2 -17.9133 -52.7292 -17.9008 -362.518 -616.131 -411.369 5.57632 177.578 10.1991 -245.371 386.425
2788 1 -19.0813 -49.9259 -20.6808 990.958 1086.03 923.159 -104.725 -79.1069 99.7667 -837.317 318.773
2698 2 -17.9615 -55.6101 -15.0841 -427.071 -650.97 -497.573 32.6427 -103.482 -24.9486 -249.828 276.597
2690 1 -16.445 -55.5756 -15.7125 1038.36 1125.95 957.718 79.0652 72.6838 -35.6364 -821.845 244.235
2691 1 -16.4141 -52.7114 -17.2801 1087.72 1128.34 1080.48 11.1037 -35.5148 -17.3364 -825.952 83.9779
2694 2 -15.391 -52.7325 -18.5742 -329.872 -662.38 -155.511 -12.6834 -230.062 -34.4398 -246.063 601.47
2696 2 -16.2255 -54.1156 -16.4284 -527.353 181.746 -468.117 30.2504 -70.249 -152.782 -254.646 742.901
2700 2 -16.2336 -51.3321 -16.4153 -535.052 199.431 -359.63 -50.1136 -32.1194 235.812 -255.799 786.666
5185 1 -14.2519 -52.6221 -19.7317 975.325 1296.67 718.112 69.6607 -62.1219 63.6429 -829.946 538.853
5186 1 -11.7597 -55.3699 -16.0818 1000.46 1266.43 796.766 92.5353 -32.5267 24.9219 -818.408 443.993
5187 1 -11.8 -52.6735 -17.8382 1048.24 1076.77 910.231 -46.4646 -146.638 47.8959 -822.441 318.849
5191 2 -14.4156 -54.0077 -20.5963 -604.611 66.5256 -558.682 -19.6136 16.3661 15.0899 -248.542 651.421
5192 2 -11.995 -54.0077 -16.9418 -601.805 -30.7068 -359.042 38.5069 -52.5167 -169.775 -259.91 587.91
5193 2 -12.8317 -52.687 -19.0414 -543.969 -691.794 -453.516 -23.6406 58.7907 -63.1962 -253.216 259.677
5194 2 -12.7357 -55.4705 -14.8128 -464.385 -698.126 -373.513 33.2693 -59.5742 -36.6736 -253.57 319.586
5196 2 -12.1249 -51.2824 -16.99 -486.425 64.8319 -362.237 -13.6037 -15.4241 221.484 -253.617 631.888
5291 2 -14.4169 -51.1245 -20.3945 -579.755 208.131 -430.482 -55.8782 -26.3524 -171.189 -245.705 790.446
5189 2 -15.3034 -55.5584 -14.5196 -235.783 -641.112 -247.658 21.7348 239.809 54.3255 -249.506 585.163
5285 2 -15.443 -49.85 -14.3896 -349.217 -738.77 -442.349 1.58106 96.7428 85.6421 -248.781 417.413
5290 2 -12.8179 -49.866 -14.9262 -297.375 -665.514 -264.458 -20.2758 -158.6 -17.7434 -252.622 475.781
5282 1 -11.7972 -49.9224 -16.143 1151.67 1276.63 790.925 40.9176 85.574 -100.158 -830.295 497.916
2786 1 -16.5017 -49.9099 -15.5925 752.029 1350.66 945.138 32.7042 54.4062 8.87639 -826.296 540.715
7781 2 -10.2831 -49.8868 -15.5553 -343.887 -590.155 -165.658 127.557 288.82 164.661 -239.892 718.825
5190 2 -10.2367 -52.6496 -18.3717 -30.62 -529.793 -398.717 -46.4012 -247.162 27.0571 -254.079 626.776
2615 2 -19.7754 -62.513 -13.5044 -619.48 -138.862 -504.548 -32.4286 35.5503 -60.4732 -256.983 454.842
16 1 -24.1261 -66.7769 -13.6813 964.219 1047.98 874.721 -79.3413 -4.88733 51.2973 -821.97 222.203
13 1 -24.1177 -63.9483 -12.0063 808.234 1239 959.981 64.2656 -79.9992 28.8761 -822.896 421.083
14 1 -21.5648 -66.8057 -8.60571 904.173 1130.55 1026.07 -46.069 -117.172 -106.888 -830.503 346.903
15 1 -21.4964 -63.9512 -10.3254 805.297 1339.74 803.328 -64.0352 0.698854 -22.316 -822.999 548.159
18 2 -20.4919 -64.0274 -11.5423 -621.889 -701.208 -453.293 8.75217 38.7371 47.3128 -254.315 244
19 2 -23.9281 -65.3694 -12.8359 -531.539 208.838 -411.606 42.9482 56.2131 202.117 -255.233 781.866
20 2 -21.4287 -65.4696 -9.54759 -492.923 282.489 -394.854 35.9896 32.8089 -234.259 -251.047 840.586
21 2 -22.9572 -63.8016 -10.9244 -514.399 -694.591 -520.926 23.1779 61.6083 36.0497 -248.396 219.62
22 2 -23.049 -66.7463 -7.92801 -419.421 -661.184 -463.348 -51.1106 -128.995 53.5046 -245.503 340.739
24 2 -21.2736 -62.5895 -9.45259 -571.796 317.313 -445.775 -31.6759 -44.3912 160.131 -256.108 883.288
119 2 -24.0132 -62.5295 -12.8292 -516.683 -16.9748 -560.56 47.8647 -84.2876 -99.3618 -253.508 575.642
2509 1 -19.4985 -63.927 -12.7608 960.218 1083.07 731.653 -47.2887 52.7646 44.0701 -825.132 341.032
2515 2 -19.616 -65.2783 -13.6748 -581.106 -90.2939 -492.022 17.5526 13.9832 67.4494 -257.332 469.327
28 1 -24.5259 -66.6826 -7.37296 793.769 1287.42 822.967 -23.8296 22.7542 -88.0145 -832.812 506.584
2513 2 -20.4992 -66.7094 -7.4114 -497.651 -650.987 -383.042 -2.04839 125.423 3.7321 -245.351 318.541
2517 2 -18.0056 -63.8787 -12.1443 -367.283 -666.505 -417.398 16.3959 168.673 -19.6902 -246.599 405.427
27474 2 -25.5621 -64.0946 -11.3024 -378.764 -616.594 -398.128 -26.3375 -130.437 -36.1008 -253.507 330.704
23 2 -23.802 -68.1513 -12.8775 -492.525 57.6194 -535.933 26.2225 -25.1774 -81.9508 -258.071 593.747
2424 2 -21.3706 -68.2598 -9.30714 -534.136 -33.5742 -514.459 10.2433 21.4859 117.524 -255.152 533.137
2518 2 -17.9667 -66.5864 -8.00027 -474.434 -674.643 -325.514 29.5634 -99.3872 -100.25 -242.585 393.042
5008 1 -13.9909 -66.6414 -13.7607 1017.06 1216.33 795.529 14.9035 -11.3473 120.177 -828.965 421.084
2510 1 -16.9341 -66.5371 -9.23093 714.779 1082.39 822.728 45.2017 -92.5621 111.502 -837.179 419.81
2511 1 -16.9511 -63.7956 -10.928 765.163 1123.79 997.915 -36.0548 3.11138 -28.6161 -826.461 325.12
2514 2 -15.4624 -63.7603 -11.4744 -373.074 -588.419 -437.993 32.623 -169.023 -45.1584 -254.365 362.801
2516 2 -17.1326 -65.1702 -10.0439 -525.959 -27.7122 -522.106 9.20836 -14.2863 -93.6587 -254.767 522.998
2520 2 -17.242 -62.3771 -10.1831 -534.026 -43.4106 -510.275 3.25461 -17.6098 94.5351 -256.446 507.334
5005 1 -13.9746 -63.7818 -12.108 881.636 1198.69 965.859 49.4589 -90.6597 -8.80248 -827.971 336.364
5006 1 -11.3288 -66.5803 -8.67234 918.862 1174.7 1057.47 63.1753 -58.0088 -6.25585 -826.384 267.189
5007 1 -11.3477 -63.846 -10.3667 1079.16 925.022 850.466 -14.2739 -93.7901 47.3969 -829.068 273.037
5009 2 -15.5148 -66.559 -8.59649 -615.683 -644.046 -519.657 -43.8757 61.7378 -55.0759 -251.702 197.633
5011 2 -13.8112 -65.1765 -12.9402 -552.335 161.169 -366.644 -44.4749 -54.2529 197.605 -249.953 736.875
5012 2 -11.1573 -65.201 -9.58397 -564.747 -28.4401 -480.937 42.0512 -33.4446 -102.357 -257.594 538.324
5013 2 -12.8497 -63.8312 -10.9871 -346.634 -693.637 -493.082 -25.3153 130.075 -43.047 -245.51 386.368
5014 2 -12.825 -66.6218 -8.07475 -108.127 -589.022 -485.071 63.7895 -129.805 -47.6017 -251.322 511.498
5016 2 -11.1586 -62.4609 -9.56949 -615.867 -104.131 -451.418 38.8761 60.1269 61.6057 -259.122 481.174
5111 2 -13.7008 -62.3658 -12.9553 -499.619 106.654 -417.229 44.9638 -46.1486 -164.15 -255.743 646.293
5020 1 -14.3544 -66.6124 -7.49803 980.164 1172.56 1061.01 -56.2835 -73.0595 62.2692 -825.241 255.238
113 2 -25.5083 -61.0749 -8.60168 -673.185 -722.9 -541.59 -57.9513 -55.4086 -72.2427 -249.589 247.535
27570 2 -25.391 -58.4389 -11.2914 -549.318 -639.874 -418.303 69.0444 -193.43 -64.7293 -250.502 419.935
112 1 -24.1363 -61.1899 -13.7204 843.395 996.292 895.244 -31.5952 -124.785 57.6921 -829.036 278.985
110 1 -21.47 -61.1171 -8.6837 1089.8 1085.78 1208.27 51.4254 78.7577 149.228 -820.022 328.446
115 2 -23.9457 -59.8279 -12.8608 -530.727 -102.346 -472.371 26.6355 25.0584 121.919 -254.304 458.827
116 2 -21.2543 -59.7226 -9.4041 -536.297 -88.6915 -677.83 0.0348671 -31.6859 65.7123 -264.54 547.448
118 2 -22.979 -61.1889 -8.02028 -261.796 -599.421 -421.012 21.4395 -274.283 -6.79261 -246.535 559.282
2611 2 -19.5453 -59.7533 -13.5332 -485.165 142.819 -306.372 68.0733 12.201 275.313 -255.236 745.514
124 1 -24.4587 -61.0871 -7.42846 740.944 1255.67 969.101 -45.2484 -43.9216 -119.69 -831.08 504.446
2609 2 -20.3836 -61.1049 -7.37393 -336.266 -676.812 -153.324 -6.63337 287.383 -5.75843 -234.038 678.04
114 2 -20.4249 -58.2878 -11.4412 -604.226 -613.474 -190.444 -20.4719 -155.479 41.1393 -243.451 503.968
117 2 -22.834 -58.3765 -10.9523 -764.55 -633.399 -418.928 -45.5955 145.166 37.4945 -244.996 406.202
109 1 -24.0049 -58.4138 -12.0604 831.618 1102.5 970.74 98.1597 7.92615 -78.6226 -829.952 320.446
111 1 -21.4674 -58.3467 -10.1852 822.176 986.462 935.544 17.7522 -47.6297 22.6526 -829.095 174.666
120 2 -21.347 -56.9273 -9.36364 -492.83 260.605 -434.904 -31.484 -47.1825 204.956 -254.247 814.279
215 2 -23.8115 -57.052 -12.9648 -485.172 262.511 -397.867 -41.5186 -34.6941 -209.554 -252.676 801.184
2605 1 -19.3673 -58.3704 -12.6615 988.305 1225.63 922.699 -24.1689 -19.5964 48.7946 -828.312 293.671
2711 2 -19.5036 -56.9546 -13.5142 -547.518 94.6814 -459.985 -17.8849 31.8318 -173.158 -251.985 676.623
2613 2 -17.9114 -58.3245 -11.9758 -306.184 -616.02 -320.735 63.0665 226.342 75.5647 -248.215 523.885
2614 2 -17.8328 -61.1539 -7.89537 -455.225 -689.252 -234.014 34.8888 -84.7197 -6.64947 -244.072 425.192
5104 1 -13.8655 -61.001 -13.8156 1054.63 1163.69 824.669 47.3597 71.4958 -72.4679 -823.509 357.313
2606 1 -16.9005 -61.1063 -9.24799 1007.63 1021.24 941.111 -46.3886 -96.2674 -17.5438 -824.975 201.734
2612 2 -17.0857 -59.6406 -9.93569 -529.404 -76.6577 -538.875 14.384 -13.8729 -52.3369 -258.229 467.731
5102 1 -11.287 -61.1476 -8.64842 970.584 1120.71 852.942 161.255 -94.3942 42.6179 -824.102 405.248
5105 2 -15.3968 -61.249 -8.71457 -417.712 -540.064 -178.114 32.9986 338.667 41.8724 -247.291 674.021
5107 2 -13.6322 -59.5586 -13.0563 -459.737 114.02 -424.75 57.5228 30.9586 174.822 -259.321 644.079
5108 2 -10.9494 -59.6635 -9.28991 -475.063 116.055 -462.597 26.3752 -30.3603 -132.116 -251.489 632
5110 2 -12.854 -61.1563 -8.15903 -86.0838 -531.706 -366.277 -61.9967 -321.507 -34.3092 -249.312 690.933
5116 1 -14.3306 -61.1205 -7.42674 1035.61 1096.5 1285.81 27.9837 -104.176 39.9864 -818.806 301.292
5109 2 -12.6439 -58.3156 -10.9238 -170.746 -628.242 -266.971 -56.1991 277.5 -55.4357 -247.246 651.347
2610 2 -15.3238 -58.3078 -11.328 -84.7011 -557.518 -321.414 -12.1341 -280.808 -13.5142 -254.173 636.565
2607 1 -16.8045 -58.3047 -10.7653 889.423 1202.59 1031.97 38.7235 79.0533 167.16 -823.42 425.239
2616 2 -16.9802 -56.8023 -9.91967 -496.942 362.373 -277.299 -91.3159 -56.2693 315.317 -247.365 964.734
5101 1 -13.8038 -58.2595 -12.077 1117.37 1185.57 1151.84 -2.34263 -100.755 48.807 -815.662 202.745
5103 1 -11.1834 -58.2806 -10.1622 1137.46 990.586 892.886 -97.9025 35.0259 -169.817 -831.082 405.483
5112 2 -11.1824 -56.9218 -9.37473 -598.218 127.438 -472.503 -51.065 -38.6192 162.79 -247.49 736.854
5207 2 -13.6709 -56.7636 -12.7856 -504.867 146.415 -471.556 -7.09325 14.3932 -168.027 -254.741 699.324
209 2 -25.6697 -55.3995 -8.41339 -304.186 -687.943 -402.237 44.562 107.547 -20.3211 -240.067 401.436
2807 2 -19.556 -51.4 -13.5854 -584.086 -89.8844 -609.925 37.4918 -70.1895 36.5954 -259.437 529.799
208 1 -24.1405 -55.5766 -13.7132 1131.29 1183.42 883.473 -34.4167 19.3997 -20.343 -819.616 288.052
205 1 -24.0458 -52.7245 -12.172 1072.3 1189.2 975.604 -138.724 -97.1595 -65.24 -821.237 364.885
206 1 -21.6185 -55.5061 -8.52112 943.928 1365.5 925.719 -108.027 32.0816 20.0697 -821.664 474.384
207 1 -21.5247 -52.699 -10.2775 1015.13 1033.4 974.69 51.4698 -183.65 -120.082 -829.433 393.823
210 2 -20.3912 -52.7265 -11.4735 -523.117 -556.951 -154.941 -15.1858 -147.572 -26.8877 -250.807 466.207
211 2 -23.9317 -54.1905 -12.8867 -540.422 181.077 -618.885 23.3263 -23.8091 10.7512 -260.223 766.165
212 2 -21.4797 -54.0297 -9.26597 -593.487 208.055 -329.249 46.6619 -75.1418 -246.851 -248.605 840.697
213 2 -22.9131 -52.7826 -11.0237 -533.967 -669.573 -424.251 -15.8658 108.892 -30.7432 -248.452 290.633
214 2 -23.1254 -55.54 -7.96015 -441.282 -680.796 -456.09 66.5608 -88.2053 -7.02022 -252.764 301.362
216 2 -21.3999 -51.2948 -9.50689 -582.289 111.796 -487.984 24.1066 51.3127 161.983 -252.274 716.624
311 2 -23.951 -51.2855 -12.9679 -597.298 166.059 -528.118 -14.1163 34.2041 -86.8396 -254.59 749.281
2701 1 -19.383 -52.7684 -12.7169 1058.25 975.591 900.938 33.6149 46.2633 -19.3182 -828.891 171.778
2705 2 -20.4761 -55.4497 -7.36317 -552.155 -719.278 -446.772 78.4163 76.4821 124.319 -249.334 372.84
2707 2 -19.4501 -54.1719 -13.4936 -509.106 27.7444 -477.046 -58.7022 -38.5434 151.788 -255.658 596.606
220 1 -24.537 -55.4689 -7.27086 697.021 1171.96 1048.74 -30.0773 18.4034 -87.8805 -831.892 457.302
2709 2 -17.8984 -52.6036 -12.0367 -426.705 -630.113 -430.029 29.8499 202.318 76.6147 -235.493 428.708
2801 2 -20.3748 -49.9652 -7.46755 -463.826 -595.191 -209.072 -19.919 280.293 -1.39726 -247.925 593.726
7697 2 -10.2548 -55.5101 -7.30344 -270.875 -634.353 -340.094 -25.5749 194.559 22.3333 -248.596 478.295
2710 2 -17.9998 -55.2955 -7.89984 -672.885 -601.991 -304.225 -24.9419 -50.8582 38.0185 -247.602 358.834
5200 1 -13.8968 -55.4509 -13.7266 996.599 1149.6 808.761 -73.7461 118.156 -12.6094 -826.904 382.242
2702 1 -16.9762 -55.3549 -9.11275 895.208 1247.07 897.729 -74.595 52.8904 41.5644 -834.682 391.399
2703 1 -16.8575 -52.6021 -10.7953 774.989 1005.61 973.917 80.0843 20.944 -53.0486 -842.075 275.465
2706 2 -15.4141 -52.5823 -11.4058 -663.067 -620.498 -553.217 -32.9801 -93.4231 32.3462 -242.963 204.422
2708 2 -17.1689 -53.9922 -10.0176 -490.803 5.03578 -535.056 49.0435 -35.0421 -101.031 -249.545 557.923
2712 2 -17.085 -51.2399 -9.96641 -583.997 -78.1159 -552.865 -44.5204 29.056 111.542 -248.929 535.667
5197 1 -13.9671 -52.655 -12.0905 836.316 861.933 983.3 -48.7371 72.1732 0.779909 -837.151 203.101
5198 1 -11.3643 -55.4637 -8.45493 897.182 1507.21 1051.08 73.3041 9.7948 21.2878 -821.535 565.419
5199 1 -11.4065 -52.6153 -10.2062 1005.16 1126.15 888.221 -49.7858 13.1369 -158.951 -829.764 355.262
5201 2 -15.5532 -55.2698 -8.37216 -371.907 -642.452 -319.592 0.351111 267.957 -23.2606 -242.158 554.176
5203 2 -13.851 -53.9915 -12.9544 -535.717 -120.395 -471.008 52.7598 -2.42305 129.297 -252.712 456.427
5204 2 -11.1962 -53.9816 -9.24932 -465.226 325.314 -247.318 2.89575 -39.3454 -313.619 -252.075 894.379
5205 2 -12.8507 -52.6881 -10.9194 -438.822 -601.689 -364.415 -40.2547 150.503 -58.6403 -245.99 356.807
5206 2 -12.8741 -55.567 -7.88954 -77.5706 -610.394 -394.888 -30.9626 -212.999 7.33773 -251.188 595.533
5208 2 -11.404 -51.2149 -9.40625 -660.145 -6.48793 -615.569 -34.0086 -76.4933 37.6247 -247.96 652.217
5303 2 -13.8949 -51.3147 -12.9492 -617.671 -175.109 -508.849 -42.0099 59.0058 -58.8286 -254.042 430.888
5212 1 -14.3713 -55.4002 -7.22992 1143.99 1097.82 1019.73 -35.574 18.1257 6.58981 -826.513 129.413
5308 1 -14.3477 -49.7839 -7.28256 794.644 1038.07 1087.3 -7.03386 25.0644 -141.893 -833.705 368.912
5202 2 -10.3315 -52.5683 -11.3929 -432.702 -554.15 -134.107 1.83504 -167.022 35.0735 -254.377 477.035
5294 1 -11.4466 -49.7826 -8.63626 1014.34 1103.03 853.597 59.9395 36.5474 -77.7693 -832.56 284.411
5296 1 -13.9763 -49.9138 -13.757 1050.42 1340.54 918.153 107.938 -166.275 95.3054 -822.386 534.024
27486 2 -25.6093 -63.8147 -4.46983 -607.137 -654.952 -266.477 -122.155 -108.449 80.5537 -245.652 483.88
2524 1 -19.0254 -66.6752 -6.76488 1042.34 1049.9 823.706 27.5873 -38.1009 -62.8865 -833.22 260.795
25 1 -24.5243 -63.9225 -5.64 952.174 1398.11 882.711 61.9817 -2.327 44.0759 -826.023 502.028
26 1 -21.8727 -66.8576 -2.16178 941.203 1315.91 910.759 16.774 22.8344 -31.1011 -825.843 397.55
27 1 -21.9222 -64.016 -3.84956 659.971 1322.05 766.949 -99.2273 75.6157 -60.4909 -830.428 660.781
30 2 -20.4726 -63.8291 -4.35136 -708.223 -681.748 -483.048 49.9676 23.856 46.3264 -255.855 247.142
31 2 -24.668 -65.2884 -6.55097 -546.117 87.2382 -332.444 32.0675 9.68877 148.726 -259.171 617.405
32 2 -21.9879 -65.4683 -3.05778 -514.003 106.588 -256.391 -12.4696 -30.2662 -233.693 -256.152 677.258
33 2 -23.0963 -63.9065 -4.90811 -390.909 -732.54 -530.831 -20.0945 101.51 -118.143 -246.026 403.095
34 2 -22.9288 -66.8701 -0.943758 -409.185 -623.742 -144.147 26.7586 -195.789 -12.2959 -254.779 539.21
36 2 -22.2727 -62.6364 -2.97977 -606.847 114.256 -511.739 -112.226 -137.677 132.44 -244.395 779.565
131 2 -24.6347 -62.4179 -6.45105 -555.568 383.258 -364.222 -56.8536 51.3415 -276.837 -245.865 992.919
2521 1 -19.0676 -63.9542 -5.05494 753.502 1228.24 944.634 -103.148 -12.403 -91.0977 -829.51 477.963
2525 2 -20.4396 -66.8769 -1.42386 -421.415 -596.61 -263.153 0.0168164 243.93 52.6855 -248.264 519.904
2527 2 -18.9125 -65.3352 -5.89543 -552.349 -133.38 -527.577 -91.9733 -103.428 56.1328 -254.177 482.381
2627 2 -18.8097 -62.5319 -5.91692 -603.811 87.7556 -448.69 152.082 -21.4688 -107.058 -246.926 707.251
2536 1 -19.3292 -66.773 -0.237229 947.059 1138.59 1019.14 -7.47529 13.0736 -25.3947 -829.858 175.187
2531 2 -18.8518 -68.0887 -5.96849 -548.653 116.919 -408.876 85.0154 -119.058 -159.097 -250.264 713.887
2436 2 -22.0699 -68.2941 -2.97984 -512.843 267.28 -430.247 104.313 73.3374 248.306 -246.263 885.847
2530 2 -17.8674 -66.7578 -0.902653 -170.061 -554.777 -356.447 -74.9897 -251.264 69.1103 -247.727 575.882
2529 2 -17.8988 -64.0403 -3.96285 -505.939 -684.519 -463.137 4.32482 144.235 -35.9208 -241.927 328.183
2522 1 -16.3821 -66.8137 -1.65872 1106.81 1135.45 1016.18 -0.432253 -138.585 -19.7257 -833.164 265.356
2523 1 -16.4544 -63.9752 -3.27894 979.149 1218.25 883.085 -45.5684 -26.3467 -73.2848 -840.284 337.33
2526 2 -15.4009 -63.869 -4.50892 -450.755 -684.644 -248.335 39.6189 -168.473 -18.8776 -239.378 483.683
2528 2 -16.2179 -65.4187 -2.49721 -548.392 154.412 -484.767 48.5515 -55.1845 -124.983 -247.189 718.565
2532 2 -16.364 -62.591 -2.44832 -584.461 90.2048 -492.349 -50.6938 -51.0281 125.598 -247.567 681.439
5017 1 -14.3147 -63.8465 -5.71926 1147.25 1088.67 853.101 -45.2468 20.7571 69.1798 -840.047 307.432
5018 1 -11.6786 -66.776 -2.26991 1117.38 972.735 1058.74 6.28301 -114.323 -134.008 -840.233 330.275
5019 1 -11.7321 -63.9832 -3.80668 951.439 949.749 840.296 125.498 74.3947 -37.3527 -842.644 283.208
5023 2 -14.5089 -65.2103 -6.59814 -549.564 78.9262 -386.385 19.7267 -33.5442 227.81 -246.958 692.319
5024 2 -11.9789 -65.4131 -3.10923 -554.607 -27.5735 -489.422 -23.4514 -38.1367 -31.4336 -252.559 506.593
5025 2 -12.8433 -63.9331 -5.01575 -266.106 -678.976 -310.916 -64.2027 220.35 -35.2977 -238.056 561.902
5026 2 -12.6854 -66.8839 -0.921825 -387.003 -558.47 34.1295 56.236 -334.035 -56.6193 -232.03 795.491
5028 2 -11.8962 -62.6037 -3.05197 -635.055 65.2796 -522.812 32.1461 61.694 49.0946 -249.888 667.989
5123 2 -14.5003 -62.4625 -6.5021 -510.07 -63.3333 -467.552 -11.04 32.301 -146.369 -256.325 500.154
5021 2 -15.1998 -66.7448 -0.563751 -417.041 -636.697 -451.306 35.8701 207.895 35.8282 -241.462 423.401
7428 2 -11.8319 -68.1876 -2.96836 -590.872 51.6631 -639.38 64.1387 58.4363 35.3113 -246.905 687.531
125 2 -25.6708 -61.1263 -0.34156 -523.076 -585.66 -429.726 20.1866 102.399 -22.8766 -255.738 229.613
2620 1 -18.9129 -61.1366 -6.70816 1126.55 1110.35 656.307 -78.3535 -55.8878 3.62142 -846.712 491.528
122 1 -22.0695 -61.2634 -2.14019 925.886 1326.32 974.643 36.7131 -38.9412 -58.3933 -837.196 402.521
127 2 -24.6713 -59.577 -6.78235 -544.916 118.314 -553.477 -54.3847 -141.823 89.9755 -250.475 734.252
128 2 -21.9848 -59.7873 -2.99886 -521.148 373.458 -467.919 32.4508 21.2355 -259.633 -242.385 980.956
130 2 -23.1349 -61.0084 -0.959618 -468.385 -597.146 -265.046 -51.5122 -120.545 72.8867 -246.82 389.358
2621 2 -20.6688 -61.3503 -1.37 -386.83 -706.817 -305.925 111.061 272.26 123.711 -238.639 663.414
2623 2 -18.767 -59.6984 -5.98729 -707.808 89.7085 -482.631 4.50125 34.1457 47.1139 -243.963 719.286
2632 1 -19.4753 -61.237 -0.233404 1060.43 1341.8 1002.46 -5.52257 -13.405 67.8003 -821.822 336.544
227 2 -24.7847 -56.7962 -6.33701 -415.975 101.445 -403.034 25.8983 28.6734 -120.12 -257.051 555.842
121 1 -24.5769 -58.3304 -5.74134 847.581 1212.67 770.748 -170.176 -4.47261 -2.74597 -830.456 504.191
123 1 -22.0077 -58.3991 -3.89302 996.952 1371.88 1148.86 -95.305 -102.424 59.1398 -833.393 419.41
126 2 -20.5752 -58.4207 -4.71488 -82.3584 -689.799 -380.967 -39.0021 -192.637 28.8238 -236.058 628.607
129 2 -23.1679 -58.5277 -5.0347 -692.535 -585.097 -262.643 14.5646 275.281 -50.0636 -241.403 621.013
132 2 -22.161 -56.9342 -3.0993 -460.364 227.027 -274.854 35.8405 24.5143 311.155 -254.965 821.895
2617 1 -19.0067 -58.2716 -5.18135 1027.05 1206.64 818.349 77.917 -39.8507 104.368 -840.605 411.029
2723 2 -18.9193 -56.843 -5.88654 -617.887 -18.7989 -480.109 -63.8064 -50.9566 -62.2925 -244.729 571.833
2626 2 -18.0364 -61.1729 -1.00718 -269.625 -636.796 -323.817 46.1514 -188.008 -6.16573 -252.405 479.999
2625 2 -17.9516 -58.1995 -3.98973 -327.416 -709.152 -417.647 0.615603 129.278 21.4996 -248.772 413.456
2618 1 -16.5699 -61.1603 -1.63005 1068.73 1190.15 927.657 -61.1513 123.74 -22.5254 -833.297 332.342
2624 2 -16.392 -59.7588 -2.45179 -562.318 263.707 -312.105 41.8528 -3.45992 -236.856 -251.804 843.703
5114 1 -11.7463 -61.1339 -2.26008 1057.9 1424.55 946.744 88.6571 -142.839 -29.5087 -825.423 524.353
5117 2 -15.336 -61.1999 -0.528329 -124.703 -649.492 -285.741 -36.0386 305.31 -47.0906 -240.922 712.051