ITEM: TIMESTEP
1940000
ITEM: NUMBER OF ATOMS
29952
ITEM: BOX BOUNDS pp pp pp
-2.5141811457830563e+01 3.5127105799817414e+01
-1.2326645833535039e+02 1.3325175267735040e+02
-2.0959296319110130e+01 3.4827149464552392e+01
ITEM: ATOMS id type x y z v_StrAtomXX v_StrAtomYY v_StrAtomZZ v_StrAtomXY v_StrAtomXZ v_StrAtomYZ c_PEAtom v_VMS
27173 2 21.6154 -118.281 -15.5299 -207.826 426.672 -271.184 106.94 -9.61092 107.486 -86.7313 718.365
1823 2 -9.96939 -111.773 -20.479 -189.351 392.499 -230.734 -7.71798 -4.22019 53.2348 -57.6521 610.799
17081 2 22.8546 -111.795 -15.1984 -108.468 285.192 -210.587 156.364 -94.5989 5.38337 -120.281 553.064
21906 2 23.13 -116.021 -15.2561 -198.95 271.118 -318.703 55.6722 -74.9356 30.1039 -117.652 566.091
22357 1 21.9226 -117.009 -14.8698 379.779 -635.194 635.24 -170.529 120.42 -64.3949 -322.575 1223.89
19491 1 23.7451 -114.601 -15.3996 351.445 -508.228 630.213 -221.86 160.033 -31.2274 -284.157 1133.06
24444 2 23.8476 -113.631 -16.53 -204.493 264.733 -222.884 163.155 -57.5692 -7.13869 -121.91 564.886
24110 1 23.8363 -112.019 -16.513 337.67 -579.954 398.16 -418.448 63.2808 149.158 -290.823 1226.89
1926 2 25.2259 -111.549 -15.7798 -120.352 280.975 -232.786 245.427 -3.23624 -23.557 -125.228 633.424
14300 2 23.6887 -111.237 -17.8758 -251.341 254.615 -103.329 167.003 37.3701 -105.841 -112.151 569.63
24473 2 28.2972 -111.225 -18.2193 -11.3269 205.835 -79.6749 125.832 -100.778 12.0617 -100.072 380.892
7280 2 -23.3534 -109.896 -14.9441 73.4859 -9.66087 -80.3904 -18.0398 107.849 -51.4459 -95.4085 248.208
29626 2 -23.7525 -109.584 -17.7497 -27.3487 -55.7177 9.37201 23.7654 49.0883 -18.6621 -84.9386 114.731
17193 2 -23.4535 -109.361 -20.4563 -43.4312 -31.7796 10.8426 33.9662 -16.8978 -80.1238 -83.1632 161.326
27158 1 -24.2807 -109.004 -19.1445 -28.8499 127.791 -128.781 -39.7227 -8.93264 81.0332 -362.595 273.583
24566 1 -23.8537 -109.019 -16.2475 -127.402 37.6762 105.348 -18.3336 -173.93 103.084 -350.582 408.22
2335 2 -23.3218 -107.466 -16.2446 34.3 63.3948 -57.6831 63.581 69.6699 -57.4933 -93.4207 220.43
1911 1 -22.939 -105.976 -16.7604 -81.5067 -80.4836 -2.31769 -169.947 -85.1933 81.2893 -342.631 366.653
2400 2 -21.9076 -105.958 -18.0467 15.527 -16.3218 84.0616 72.0345 5.09989 -42.4259 -91.4264 170.114
29552 2 -22.6471 -105.452 -20.5595 25.21 -75.7231 138.509 70.5453 8.44561 3.37024 -93.7772 222.795
1920 2 -22.2254 -105.24 -15.5031 66.6488 47.1742 8.14095 53.6867 67.8718 -37.6206 -103.418 171.393
27347 2 -24.0227 -104.825 -17.1977 72.0841 -47.054 50.5684 118.743 55.6628 -31.5837 -101.498 258.226
29564 2 -24.4746 -107.451 -18.8416 72.3393 -3.98769 90.7499 83.1145 11.7611 -33.0871 -89.479 178.867
27078 2 -20.1499 -105.058 -19.7959 14.3237 -113.19 130.432 68.1154 48.8563 4.1978 -95.0859 256.279
29545 1 -21.7451 -105.062 -19.3617 -62.1074 196.82 -295.458 -142.224 -26.7938 -1.88315 -345.785 494.736
9691 2 -17.1744 -110.195 -15.2372 -113.153 56.0101 -88.8908 35.1478 -52.3788 47.4054 -117.288 209.235
27142 2 -18.0781 -106.438 -20.6536 18.3316 -56.046 82.8999 40.3673 60.0203 -9.04522 -86.6343 174.484
24386 1 -18.5237 -105.266 -19.7196 -43.1282 176.661 -207.639 -110.781 -95.8197 29.4446 -346.597 422.481
7392 2 -18.2097 -105.132 -18.0776 16.2466 -50.3386 80.4205 33.9476 14.3094 -73.3554 -98.2377 181.768
4501 1 -10.3155 -110.367 -20.1313 368.893 -520.855 359.836 -138.048 -35.7616 5.01433 -376.053 919.108
4685 2 -10.1027 -110.018 -18.5081 -153.667 206.539 -175.998 92.0832 -0.323458 -105.545 -91.4277 444.014
1905 2 -11.8195 -109.663 -20.5549 -157.235 115.43 -115.29 177.464 64.2512 -28.683 -87.7488 417.135
7101 2 -9.36309 -108.888 -15.8598 -75.5486 91.0142 -60.6632 86.0241 -48.6749 -75.243 -106.407 267.914
6532 1 -9.61381 -108.928 -17.4346 233.227 -158.234 161.591 -185.389 19.5279 235.736 -320.975 633.479
7378 2 -8.30898 -108.329 -18.1879 -52.4239 22.487 -91.6314 24.1994 -5.79136 -93.2229 -109.491 194.974
29454 2 -12.2973 -107.495 -19.6273 -2.03079 -44.1662 -37.8764 102.085 36.1705 -82.9533 -108.464 239.547
4626 2 -10.6053 -107.666 -17.6936 -58.0022 -39.1456 15.3754 115.077 -24.0588 -100.147 -116.68 275.516
7179 1 -8.11682 -106.97 -19.0579 -40.4817 174.19 61.5087 -188.311 59.9874 151.928 -296.973 470.123
2204 2 -9.60852 -106.867 -19.8947 -46.151 -102.531 -32.2762 98.8145 10.7531 -78.9231 -122.293 229.085
7190 1 -11.0788 -106.777 -18.9383 44.7646 99.9402 46.809 -124.23 -45.2625 137.955 -294.197 335.374
6537 2 -8.23337 -106.552 -15.5819 -17.3111 -29.2095 59.3682 111.056 6.37846 -18.6014 -120.983 212.354
14807 2 -8.02552 -105.725 -18.1071 39.6823 -41.814 8.20664 135.684 -12.5651 -31.8617 -123.583 252.62
29477 2 -11.6294 -105.317 -18.6458 34.2861 -19.953 4.47594 -17.7222 -24.7375 -30.4363 -118.845 88.1522
29655 1 -8.14191 -105.294 -16.5238 -72.8308 11.1517 -181.832 -244.895 -16.5861 47.4137 -287.937 464.305
2206 2 -9.47537 -109.171 -20.9522 -124.054 68.5924 -117.43 46.2517 -8.74562 11.2535 -90.9641 207.141
27161 2 -6.9441 -106.982 -20.1199 97.8407 -89.9662 -47.0806 52.6407 -96.7219 -65.0747 -108.441 279.534
9678 2 -4.83314 -105.248 -19.983 146.153 -79.2688 -6.54874 101.591 -38.8255 -15.8269 -108.767 275.584
7276 1 -5.88701 -106.044 -20.9643 -226.942 187.525 10.5263 -131.262 190.534 70.595 -321.13 552.541
14611 2 22.5552 -105.985 -17.2121 -46.2664 71.2025 3.60627 -144.873 -37.6229 -6.75609 -104.091 278.883
4688 2 27.7419 -110.479 -15.8533 15.1254 96.9916 -166.974 154.139 4.00145 -48.8744 -123.236 365.049
21891 1 26.2301 -110.507 -15.1003 76.8936 -339.328 267.895 -382.449 -17.3285 -29.2123 -282.892 855.268
24482 1 27.4714 -110.086 -17.5688 -35.214 -177.295 179.682 -337.428 90.232 177.892 -298.949 746.884
27137 2 25.8796 -109.882 -17.989 -91.1898 122.192 -67.7304 150.217 15.7514 -104.942 -118.777 377.564
29547 1 24.3243 -109.818 -18.4385 341.294 -371.463 128.906 -230.664 -89.7792 248.978 -308.622 878.362
21708 2 24.3498 -109.146 -19.9137 -181.491 115.868 13.9328 91.6176 31.1256 -124.02 -104.322 377.8
14517 2 25.6335 -109.03 -15.3775 -59.4949 158.023 -58.6059 76.4359 -14.9312 14.1263 -125.959 256.742
22157 2 23.4961 -108.628 -17.654 -100.129 174.071 -98.1104 3.26996 22.0139 -92.5771 -112.083 319.114
19279 2 28.2017 -108.66 -17.7303 57.3541 -31.8649 -28.8244 128.915 -82.0842 -146.103 -122.52 376.573
24664 1 24.6265 -107.622 -20.439 223.836 -69.8758 -102.626 -71.3891 24.3723 383.727 -322.654 745.499
21940 1 25.5339 -107.382 -15.3566 76.8532 -283.225 6.49407 83.2635 81.8849 -72.8497 -293.272 407.563
19297 1 29.0328 -107.321 -18.1044 -60.8973 119.216 -44.6349 -143.187 185.255 304.715 -291.782 687.601
14544 2 26.1699 -107.223 -20.4655 -9.88447 -34.8142 85.9707 61.0135 -38.0092 -220.104 -109.049 415.98
19612 1 23.6626 -107.052 -17.6927 170.861 -222.467 9.53065 190.922 7.65238 101.02 -313.216 507.369
14671 2 25.0128 -106.807 -16.7333 -42.1495 124.841 5.82376 -63.781 -17.9013 -8.24277 -116.665 188.535
19571 2 27.0265 -106.918 -15.2793 -8.73615 112.828 3.70892 3.26212 -60.8583 20.7242 -120.601 160.784
17022 2 28.4732 -106.856 -19.5093 20.4201 -65.568 96.2433 52.3743 -43.0849 -214.933 -115.894 414.789
17168 2 24.0072 -106.74 -19.1722 -100.93 55.1119 41.1508 -66.5372 -11.9698 -142.845 -108.873 311.915
24579 1 27.5919 -106.388 -20.7405 -46.5952 108.63 -219.991 -81.225 70.0542 436.624 -312.247 829.165
26882 1 28.2973 -105.998 -15.4102 -20.463 -241.286 -37.8401 -71.091 143.447 -55.7909 -306.55 362.571
9306 2 29.0121 -106.316 -16.8516 19.6071 48.5546 11.5598 56.9651 -89.9094 -40.4114 -117.28 200.053
16515 1 29.3861 -110.45 -15.2378 -121.531 -73.9169 199.628 -146.476 -23.8462 137.296 -301.517 461.239
26892 2 30.2759 -110.173 -16.5844 38.8407 28.1786 -86.4968 59.3775 -67.6638 -106.57 -112.781 269.945
24190 2 31.969 -110.039 -19.0659 -97.1265 57.2986 -18.8732 -26.5543 -117.01 -22.3796 -100.314 250.157
26963 2 34.4455 -109.571 -19.4152 -11.1221 -42.2105 24.7664 -35.9808 -43.5176 -34.3537 -91.6698 128.359
24662 1 31.1422 -109.522 -17.7889 32.3902 33.9602 81.014 -53.2916 176.861 196.613 -311.114 469.702
26896 1 33.0726 -109.356 -20.0473 155.674 39.6745 -70.4793 87.272 238.708 69.9006 -336.684 496.809
2189 2 32.3255 -108.986 -16.947 36.7221 -67.6306 -17.6895 25.4189 18.2561 -95.4302 -109.956 196.038
29458 2 34.8235 -108.883 -15.9769 94.5911 -46.0508 -55.8765 16.8344 99.4655 -61.9181 -98.1001 251.576
2293 1 33.3286 -108.43 -15.7673 -216.155 100.499 31.9661 -110.436 -197.523 154.674 -324.793 555.582
24677 2 30.5431 -107.966 -18.3155 -21.7177 -100.23 -3.26022 64.9338 -89.6813 -132.059 -120.888 311.529
22091 2 32.6582 -107.765 -19.7506 -49.5049 -59.5604 78.3214 15.214 -99.7846 -95.0043 -108.702 274.534
19371 1 31.5863 -106.856 -19.0322 118.84 88.6291 -123.675 -171.412 107.567 263.878 -302.484 619.801
24863 2 33.1524 -106.819 -15.7938 76.2166 24.8237 -8.34716 126.833 94.9009 -25.5004 -105.788 287.534
19231 2 31.9395 -105.889 -17.8085 -14.633 15.7768 22.3946 154.908 12.6194 -58.5414 -111.744 289.687
19605 2 30.7804 -105.95 -19.9864 -48.8065 -26.0144 103.35 63.6564 -48.5584 -181.326 -115.481 371.579
26689 1 32.677 -105.442 -16.4194 -90.124 -66.2713 -41.9424 -328.743 -130.558 -28.0718 -321.843 616.001
4800 2 -22.1471 -103.507 -19.0166 74.4375 -156.336 164.425 61.4179 15.178 -8.09333 -102.404 307.124
29778 2 -22.7154 -102.675 -15.6876 71.4287 -124.487 98.0983 87.4613 47.0943 -19.3075 -117.324 273.934
24638 1 -22.0879 -101.88 -19.1345 -183.91 370.271 -394.568 -74.8862 -60.2397 58.5729 -322 711.504
24469 1 -23.6384 -101.572 -16.5111 -203.961 234.879 -269.902 -113.381 -133.862 99.5093 -307.553 589.827
27308 2 -22.7097 -101.343 -20.4889 79.2284 -183.564 209.735 32.4193 29.3133 -28.8298 -104.729 358.625
29448 2 -20.5729 -101.359 -18.958 115.372 -190.239 188.823 27.6479 -9.38427 -31.346 -108.173 356.014
2300 2 -22.8618 -101.368 -17.8812 80.2604 -148.866 169.55 40.6173 47.3135 -45.4011 -110.466 314.292
7160 2 -23.9108 -100.502 -15.3434 147.337 -76.6468 91.9476 8.22693 63.4452 -49.9805 -116.39 246.178
29668 1 -20.3495 -99.6169 -15.6074 -143.027 83.5417 -220.553 -64.4958 62.2426 146.376 -292.373 404.089
29771 2 -24.2344 -99.4044 -20.4468 73.5057 -127.234 165.413 -5.30477 15.0681 -2.38324 -105.267 260.72
27072 2 -21.3907 -98.7913 -16.5247 74.3431 -51.1062 119.651 31.2105 17.5873 -66.8747 -116.346 201.844
27239 2 -24.8662 -102.446 -16.9625 110.987 -109.918 103.57 80.1465 75.9588 -45.5602 -108.613 300.037
2144 2 -19.474 -100.332 -16.789 102.704 -97.5267 150.192 12.1635 -60.2714 -46.7812 -115.651 264.128
24757 1 -19.248 -101.3 -18.0236 -226.51 335.858 -344.174 -18.755 112.437 79.2502 -311.344 673.866
4892 2 -13.8747 -103.968 -18.691 149.729 -152.479 78.1268 -47.3049 -52.844 -46.0084 -110.033 310.257
24363 1 -17.8286 -103.951 -17.1146 -125.728 238.38 -235.691 -18.4674 46.5947 156.74 -319.144 515.697
24934 2 -17.7065 -103.903 -15.4593 74.0889 -65.0064 121.998 -5.55527 -31.9872 -103.287 -112.62 251.94
22265 2 -17.9528 -103.718 -20.1304 69.7985 -152.691 121.755 64.0181 29.8034 -36.1332 -102.443 287.466
2289 2 -16.3489 -103.392 -17.5881 117.914 -177.861 110.026 11.9492 -41.5129 -84.5943 -110.171 335.08
7186 2 -14.0834 -103.011 -16.3236 169.534 -167.388 115.152 1.56998 -64.6976 -47.5538 -113.105 342.783
4609 1 -14.7903 -102.961 -17.7602 -321.913 378.121 -231.047 30.2803 99.6454 136.657 -311.912 723.366
4570 2 -18.9721 -102.729 -17.2908 109.821 -184.597 152.197 -2.29653 -38.3005 -41.7148 -112.105 332.552
4419 1 -17.483 -102.182 -20.3032 -188.393 387.707 -316.622 -117.736 13.7758 196.717 -317.83 761.875
9883 2 -15.8563 -102.231 -20.4339 117.673 -187.11 141.002 -5.21698 -25.4726 -105.827 -109.815 369.016
7038 2 -14.5468 -101.487 -18.4975 143.766 -150.125 139.009 -6.54831 -13.852 -77.8165 -111.474 322.284
2205 2 -18.0512 -101.294 -19.0462 90.8682 -170.647 139.324 32.7517 -39.1491 -79.6031 -110.794 332.018
9589 1 -14.8536 -101.022 -20.0333 -214.1 300.503 -286.617 43.0118 24.2965 199.13 -311.642 658.538
1904 2 -15.6882 -99.6829 -20.1685 56.9696 -108.485 140.729 4.69978 -7.36546 -63.3623 -112.001 246.013
2399 2 -16.1444 -98.9879 -14.8487 169.058 -40.5376 36.5509 44.6978 -31.8575 -84.9763 -114.344 253.805
2295 1 -13.179 -102.334 -15.1884 -390.279 241.105 -177.508 -70.6178 167.336 115.677 -304.172 669.839
7151 2 -14.1616 -100.988 -14.828 157.357 -78.9988 61.5562 22.1498 -71.0772 -57.6582 -114.684 262.678
4613 2 -9.42721 -104.284 -16.327 54.7605 27.4793 104.344 54.1543 -22.8099 -13.6191 -122.849 124.382
9685 1 -12.5196 -104.244 -19.3907 -191.021 145.14 -129.255 99.6088 -14.6308 95.0039 -305.236 391.843
4785 2 -8.99899 -103.413 -19.9048 80.2125 -4.46855 77.2211 89.8585 -3.96123 -61.9884 -120.997 206.7
2482 2 -11.5624 -102.943 -19.4329 116.252 -65.6516 96.8684 10.1476 27.4821 -54.2463 -116.975 203.326
12109 1 -10.1538 -102.818 -16.1552 -214.752 30.9558 -178.475 -118.142 100.503 30.2944 -293.044 357.356
24667 2 -11.6623 -102.452 -15.7978 164.751 -88.1102 85.2474 46.7575 -75.8192 -30.6701 -117.307 277.097
10084 1 -10.0577 -102.469 -19.2352 -179.919 18.2965 -190.268 -146.814 -39.4415 74.3568 -295.835 356.882
7283 2 -9.86861 -102.257 -17.6442 88.7685 3.63531 73.847 83.7994 -16.8647 -12.3075 -121.525 169.04
2122 2 -9.85224 -101.014 -19.9062 86.8774 -27.7936 107.778 66.5656 41.5033 -20.384 -116.296 188.918
9894 2 -7.49579 -100.796 -16.1557 148.343 -27.9544 25.6858 80.2901 -32.6612 -35.8937 -124.597 225.624
7299 1 -7.29247 -100.103 -17.5817 -289.373 77.1129 -100.814 -126.761 20.7879 34.426 -286.495 392.199
7213 1 -9.8089 -99.4974 -19.4041 -153.158 38.2038 -208.961 -76.6176 -59.3357 56.744 -300.835 297.06
9716 2 -8.64119 -99.4761 -18.281 108.256 -17.6871 58.2339 32.3225 -2.85201 -23.4478 -122.312 129.892
7290 2 -11.1695 -98.9785 -18.5974 118.643 -32.953 85.0544 40.5086 25.3487 -20.9715 -114.827 164.887
11981 2 -12.8403 -104.601 34.8214 34.1089 -76.2673 114.984 -24.7749 68.3386 -94.0934 -111.235 264.694
4509 2 -6.75765 -104.579 -15.9791 135.953 -20.827 34.7702 145.802 -13.8655 -42.3438 -121.692 297.8
9803 2 -1.78167 -104.088 -15.4618 234.665 -81.2729 -211.789 91.8808 -19.3626 -27.8511 -119.955 432.278
2362 2 -3.21423 -104.078 -17.9625 189.079 -141.209 31.8158 89.1261 20.4929 -10.7347 -114.62 327.591
7036 1 -3.81575 -104.09 -19.4598 -323.467 252.472 -129.631 -197.723 32.0829 42.9043 -309.949 619.301
27464 2 -2.51646 -103.949 -20.378 137.212 -142.686 75.5953 90.7508 -32.6951 -43.4655 -109.53 313.807
17389 1 -5.68052 -103.886 -14.9702 -395.559 82.3849 36.0855 -273.814 163.517 158.963 -291.719 767.716
12280 1 -2.88433 -103.431 -16.509 -524.573 286.26 129.183 -201.367 -41.441 13.0621 -291.717 825.875
7182 2 -4.2987 -103.454 -15.6604 273.248 -96.2601 -78.0216 119.629 -45.3048 -46.8844 -121.661 431.062
9498 2 -4.671 -102.743 -19.5703 164.747 -106.332 62.3961 79.5589 -44.6201 -36.7408 -117.491 291.934
9605 2 -1.98326 -102.012 -16.5765 260.077 -141.386 -43.8126 60.376 13.0821 -8.56332 -124.834 378.405
2032 1 -5.81047 -101.591 -20.0151 -310.825 155.673 -176.155 -163.387 93.5456 46.1114 -298.052 534.463
4427 2 -6.60643 -101.033 -18.7258 140.684 -56.2502 69.9668 78.102 -23.401 -11.2092 -122.003 224.002
12163 2 -5.08046 -100.248 -20.5216 149.087 -88.0135 87.8202 75.5218 -79.9774 -27.2391 -117.03 289.775
15108 2 -6.81805 -102.463 -20.9336 143.583 -84.0144 94.0162 101.264 -15.6914 -44.0626 -116.727 283.378
9791 2 -6.1925 -98.8855 -17.2809 153.553 -50.7206 41.9647 63.1015 0.792188 -0.19838 -123.809 208.165
7374 2 2.54645 -103.721 -15.9916 215.116 -88.7431 -233.928 -24.1872 79.852 -31.8103 -113.096 425.963
9511 2 2.48293 -103.192 -18.728 50.1042 -129.788 62.5061 -20.6735 52.4639 -60.6399 -106.734 235.196
14696 2 0.0991838 -103.131 -20.3332 89.794 -139.269 117.867 90.7355 31.2184 -72.4293 -110.42 321.012
12097 1 3.2584 -102.925 -17.2777 -363.736 306.196 155.479 44.623 -195.249 84.2526 -314.07 715.675
9686 1 1.62879 -102.714 -20.0185 -49.0502 243.041 -295.734 -80.0131 -49.5467 163.428 -314.204 570.019
9773 2 0.274807 -102.627 -15.3316 197.795 -161.467 -216.507 19.994 -19.4255 -11.3378 -127.377 393.179
14585 2 2.69575 -101.452 -16.8403 205.078 -165.833 -64.2816 19.9195 80.4207 -68.8608 -119.821 380.841
12277 1 -0.58403 -101.333 -16.0323 -456.961 214.941 175.715 -123.628 66.0007 3.90999 -280.359 696.85
12305 2 1.38371 -101.12 -19.8039 29.0736 -154.258 195.748 66.122 7.21199 -107.654 -118.93 374.149
7008 2 0.380849 -100.584 -17.0231 147.901 -116.57 27.5347 71.3721 -35.258 -49.6828 -123.596 281.098
7274 1 1.91561 -100.107 -16.7923 -284.8 111.391 7.13163 -101.304 -61.318 59.706 -293.501 423.429
2007 1 1.6128 -99.5368 -19.5806 -44.7852 272.555 -445.307 -62.6881 -10.8264 168.293 -294.611 696.659
7007 2 2.26867 -99.3713 -18.166 67.8759 -97.6503 146.65 38.7228 37.9777 -62.1907 -116.807 258.982
4740 2 1.86962 -99.2155 -15.4286 155.634 18.7938 -52.2088 50.4964 34.1917 90.0965 -117.224 262.663
10265 2 4.84512 -101.521 -14.8868 334.552 -210.134 -197.349 10.6634 186.555 2.40712 -111.724 628.211
7268 2 4.79533 -102.846 -17.1561 265.46 -172.226 -128.853 -11.067 138.326 -30.3167 -100.458 484.761
16801 1 1.68738 -103.44 -14.6762 -548.534 243.147 575.223 11.4757 -123.866 82.2523 -302.628 1032.79
14519 2 6.94917 -102.689 -15.3365 350.235 -177.124 -242.894 -16.1515 107.61 -37.1149 -101.688 597.305
14795 2 8.0938 -102.392 -20.0969 253.549 -161.539 36.2138 -17.6213 87.3505 -52.1848 -75.7974 401.636
12208 1 5.80565 -101.898 -16.1499 -716.892 453.615 355.559 -62.7077 -279.312 117.597 -325.014 1245.9
11906 1 9.23839 -101.602 -20.6704 -357.715 485.991 -211.389 165.679 -337.732 118.452 -361.783 1037.51
14232 2 6.44503 -100.5 -16.732 372.519 -249.332 -92.9634 22.4058 75.2313 -105.104 -102.643 604.597
9893 2 9.43933 -100.248 -19.7319 215.527 -325.5 105.136 -125.798 122.2 -94.4789 -98.7726 603.51
16985 2 8.51301 -99.7296 -15.248 332.363 -192.662 -73.0451 -78.1216 17.737 -24.4424 -108.068 498.2
2368 1 7.45834 -99.2666 -16.4165 -688.897 423.204 111.144 121.307 -50.9466 132.853 -326.657 1044.98
9602 1 9.4889 -98.9647 -18.7798 -466.331 510.696 -125.536 256.139 -138.49 262.013 -327.07 1094.56
9671 2 10.7243 -102.22 -20.2611 51.5305 -187.306 73.4956 -85.1455 171.781 -37.7634 -93.1879 421.1
4578 2 8.4048 -98.8283 -17.6287 282.82 -264.977 22.6702 -108.706 25.1801 -101.74 -102.802 541.901
17105 2 10.9609 -99.0774 -18.0149 156.113 -153.298 12.6265 -121.218 52.8409 -103.827 -112.049 395.885
19745 2 10.9106 -100.32 -15.8172 210.537 -189.419 -5.79871 -129.443 -10.0574 -32.9554 -117.545 417.216
24705 2 14.9661 -105.054 -19.0557 -3.99807 87.5618 -67.3705 -130.864 -20.2537 66.7623 -80.6355 290.138
22018 2 12.5246 -104.129 -17.7485 -83.0706 16.276 -105.6 -32.7158 57.2162 -15.7571 -103.896 162.458
19489 1 13.8605 -104.059 -18.817 128.4 36.6522 104.251 182.363 -51.5661 -58.4496 -339.67 353.242
19662 2 16.0561 -103.568 -15.8628 138.614 -113.337 -50.4403 -174.613 68.8181 -123.384 -108.108 450.484
17263 2 13.1913 -103.026 -19.8664 -69.4777 -124.071 42.5919 -74.6252 35.5298 -1.82978 -99.2986 205.334
17351 2 14.3481 -102.87 -17.5793 39.4816 -167.232 -64.1416 -102.881 26.978 -89.1468 -116.498 299.711
17008 1 12.8323 -102.812 -16.9644 2.63399 291.801 126.214 209.01 -89.3473 186.672 -292.209 568.065
14385 2 12.8205 -102.693 -15.3852 56.573 -137.053 -2.57289 -105.981 36.5642 -103.767 -121.832 315.509
24555 1 15.8698 -102.354 -16.944 -336.045 348.472 34.2253 198.152 14.9208 253.318 -312.196 814.357
17128 1 12.1311 -101.811 -19.7676 -11.8307 405.73 -155.173 226.251 -210.957 184.584 -320.996 802.527
14709 2 12.1888 -101.525 -17.9647 37.8457 -210.909 -35.2708 -131.609 49.1614 -93.5164 -121.709 366.723
17469 2 15.61 -100.894 -16.3572 117.94 -120.787 13.7481 -52.8426 35.2281 -57.0464 -115.157 254.629
22295 2 16.7112 -100.407 -20.2649 173.248 -187.572 10.3329 -82.9598 -98.5098 -113.934 -103.009 432.033
16803 1 11.8497 -100.062 -17.094 -239.013 295.906 12.9369 239.787 -58.4456 132.883 -293.463 671.237
19774 2 13.3135 -99.7527 -16.4051 82.2074 -43.5489 16.0676 -41.4843 56.7198 -14.0693 -120.785 165.166
11835 1 14.7686 -99.5571 -15.7208 -166.541 -0.55965 -94.9998 5.36453 -97.6651 18.866 -301.866 224.862
16997 2 12.6087 -100.481 -20.4881 64.0556 -214.953 129.532 -59.7087 54.7852 -157.129 -105.354 440.647
19415 2 16.8355 -102.055 -18.152 217.803 -195.45 -7.92054 -88.1881 -119.012 -135.666 -102.339 499.487
19897 1 21.9734 -104.483 -17.2549 12.9646 13.995 -95.7579 286.006 55.9239 70.0223 -333.335 530.494
19481 2 21.555 -104.252 -18.8402 -17.3609 -25.1123 25.6777 -176.422 -41.1597 -85.4078 -96.732 350.123
24600 2 20.9702 -104.289 -15.9995 97.9742 -70.4367 -15.8801 -144.268 -52.9564 -25.4757 -99.7757 308.141
19465 1 21.881 -103.913 -20.4799 -15.4097 90.2908 -1.03211 344.859 79.7115 185.55 -338.254 699.279
24670 2 18.2676 -102.422 -20.3102 116.411 -151.897 -36.5443 -169.813 -108.924 -57.2645 -94.0568 431.609
22454 1 17.6598 -101.361 -19.3522 -345.62 372.51 -4.88363 205.381 249.724 205.165 -333.732 909.41
17467 2 18.978 -100.47 -18.8948 148.738 -108.796 -7.03069 -83.3041 -42.589 -52.7822 -100.869 291.702
2320 1 19.9144 -99.1946 -18.7842 -304.854 156.977 33.344 87.5408 2.90637 46.4701 -330.04 448.296
19439 2 20.8311 -99.0289 -17.473 148.334 -77.2132 -4.35205 -72.095 3.28241 -73.8769 -101.972 267.854
27356 2 23.1408 -102.889 -20.5647 26.1177 -35.4591 38.6855 -100.846 -55.4291 -71.2402 -100.212 244.287
22457 2 27.3149 -104.791 -20.5634 13.5785 -5.32159 86.7865 5.70792 -47.0307 -151.789 -109.733 288.017
29290 2 27.7415 -104.5 -15.085 13.9359 147.971 9.61009 12.1812 -57.2897 32.4134 -109.001 178.906
14501 2 23.1828 -103.43 -17.0546 -16.7447 21.0621 59.2157 -73.4164 -12.9783 -39.7883 -103.905 160.474
19707 1 27.0008 -103.008 -15.1382 -72.321 -160.257 -19.6128 -42.3047 118.218 41.3965 -317.034 259.966
19667 2 25.6057 -102.821 -16.003 13.8758 52.2244 0.907767 -4.78423 -55.4925 -51.3698 -108.607 139.139
24947 2 28.3214 -102.291 -20.1257 -17.5668 50.941 96.7351 6.3395 -42.7244 -11.2547 -106.06 126.113
29827 2 28.2155 -102.187 -15.8968 50.0667 37.0244 22.0771 34.8331 -49.956 -34.8899 -106.945 123.965
19755 1 24.0947 -102.278 -16.4827 -41.9547 -46.1286 -72.1808 49.8703 54.9732 130.363 -323.693 261.373
26910 2 23.3193 -101.709 -15.1638 51.9462 -11.1124 21.3873 -56.8998 -41.2307 -63.4338 -106.457 172.822
24103 2 24.3267 -101.06 -17.4797 40.6912 12.856 49.7754 -37.7022 -17.949 -96.6605 -102.667 185.394
21908 2 28.0317 -99.8071 -15.6119 70.5544 -99.6956 59.6163 54.9462 -7.40283 -65.3452 -109.789 221.978
16995 1 24.6266 -99.5189 -17.6149 -167.979 56.2786 -82.9249 166.981 54.915 243.824 -325.638 556.324
21998 1 26.6583 -99.0136 -15.192 -197.886 98.7024 -133.251 45.3083 10.7484 152.968 -320.711 386.879
4615 2 25.5827 -99.1498 -16.3831 81.1442 -48.4363 39.8337 -62.5476 -6.48131 -116.356 -106.86 256.17
22195 2 25.4149 -98.9541 -18.9272 54.0838 -68.3277 74.8263 -94.3441 -45.8682 -82.6554 -105.896 267.327
2214 2 25.8433 -102.72 -20.9168 37.8568 26.6372 46.7231 -22.662 -39.1633 -52.2868 -103.454 121.028
24661 1 28.8675 -100.872 -16.4328 -142.627 92.9313 -157.288 -68.9988 63.3375 100.928 -318.659 340.637
24594 2 23.2741 -98.7659 -17.1962 127.22 -52.8239 -7.68368 -114.24 -21.2335 -111.057 -104.381 322.23
19640 2 29.048 -99.555 -20.3323 44.5543 -76.483 116.672 -25.9017 -23.843 -33.2899 -109.158 188.74
24623 2 31.9895 -104.593 -15.2561 66.6156 38.8137 42.3791 113.412 22.112 55.7462 -104.941 223.748
12510 2 28.9007 -100.777 -18.0386 33.3883 -43.7604 124.267 14.3875 -46.7149 -37.6229 -107.313 180.655
19223 2 33.8002 -104.536 -16.9692 76.1289 -27.5431 42.3422 169.666 70.4059 -11.294 -104.543 331.663
4336 1 35.0196 -103.865 -17.7364 -186.402 182.962 -201.597 -277.002 -149.633 81.8587 -327.613 678.038
29923 2 32.3772 -104.102 -20.5504 -7.26756 -17.7208 91.5677 117.06 -15.858 -79.6279 -109.271 267.948
19580 2 34.5927 -103.584 -19.2475 72.12 -106.293 150.618 127.717 53.1305 -37.1823 -102.922 336.97
2271 1 33.7401 -103.301 -20.6097 -82.2148 143.936 -240.8 -219.941 7.58613 77.8286 -322.901 525
24660 2 33.3382 -101.741 -20.6237 48.2128 -66.0472 121.442 37.5898 -3.51725 -26.864 -106.633 182.28
24761 2 30.8117 -101.274 -19.9068 13.7959 0.106657 104.768 20.792 -12.2653 -2.05074 -107.817 107.096
27050 1 29.2117 -101.002 -19.6345 -25.5653 -2.50574 -240.477 -24.3487 82.19 34.7974 -320.307 278.121
29745 2 30.4577 -100.764 -16.0707 78.9359 -53.3551 96.3693 28.7235 -2.95094 -39.2741 -108.209 165.045
22360 1 32.2309 -100.596 -20.1615 -89.2769 99.9947 -250.835 -31.2226 -7.86959 12.2793 -318.932 309.945
2209 1 31.801 -100.584 -15.1969 -189.487 102.239 -186.039 -25.9698 -0.254303 65.9226 -317.029 314.915
27149 2 32.821 -100.119 -18.804 74.9204 -85.3883 112.704 15.5905 19.0145 -16.9033 -108.252 189.353
22068 2 32.9825 -100.163 -16.1635 124.948 -74.8231 105.871 0.472017 16.3103 -44.6364 -108.525 207.936
29667 1 33.2945 -99.3308 -17.5204 -211.623 197.183 -232.227 -10.4041 -31.5261 69.7177 -316.505 440.293
24756 2 34.8259 -99.0272 -17.9282 125.388 -109.819 100.166 -9.35836 43.869 -37.8956 -108.794 245.704
29642 1 -24.6099 -98.4865 -19.2035 -184.487 214.896 -227.305 22.1709 -78.1624 71.9122 -320.307 462.34
24479 2 -23.1445 -98.1812 -18.4717 115.533 -125.549 124.218 10.6426 68.3287 -49.0255 -107.616 286.088
2284 1 -22.1133 -97.6368 -17.4077 -228.943 184.252 -242.719 -63.2887 -90.8854 117.526 -313.127 504.822
27378 2 -22.8281 -96.8138 -16.1692 142.021 -79.2207 84.377 -2.09178 32.2683 -43.7597 -112.944 219.998
27180 2 -21.009 -96.768 -18.2534 117.706 -118.85 141.387 55.2567 -11.7871 -71.5948 -108.695 295.086
9793 1 -19.9641 -95.6226 -18.7732 -181.427 239.501 -309.362 -38.0903 78.5366 140.387 -316.425 573.918
24669 2 -20.0363 -95.0571 -20.2937 85.0005 -116.648 123.978 1.23613 2.15738 -73.134 -106.575 257.109
9131 2 -24.3941 -94.764 -20.4618 74.3279 -127.533 135.004 6.8967 15.6018 -107.621 -107.305 303.805
9896 2 -20.1904 -94.4357 -17.6284 61.7064 -80.2994 139.447 17.2351 -39.7601 -72.8474 -110.8 242.493
24375 1 -19.9241 -93.4449 -16.3773 -156.901 67.7506 -193.461 -32.452 84.0715 133.051 -309.749 370.796
29950 2 -21.1965 -93.4081 -15.3598 97.6999 -48.8018 36.4185 -22.4799 -69.0296 -53.9189 -113.049 201.924
4778 1 -16.3272 -98.3575 -20.8672 -71.8212 242.5 -299.609 -24.8254 34.0649 29.0333 -309.631 479.732
29951 2 -16.7658 -97.4658 -17.1042 119.164 -102.785 119.118 38.5881 -33.9855 -51.3138 -113.399 255.113
4900 1 -16.233 -97.4773 -15.5376 -342.414 170.551 -102.765 -67.5945 75.4131 150.955 -305.366 544.76
4714 2 -16.2673 -97.2003 -19.7792 48.3054 -113.71 162.994 18.0561 -17.6053 6.96271 -111.335 245.025
6930 2 -14.7232 -97.0302 -15.6349 193.898 -135.919 50.6411 37.8405 -15.5834 -74.7833 -114.327 322.265
7383 1 -16.9644 -96.5549 -18.4538 -192.045 275.786 -307.058 -49.5999 44.032 55.9821 -309.581 555.427
2099 2 -18.4978 -96.1974 -18.6734 80.7243 -139.519 157.596 7.77766 -41.7567 -48.3962 -111.938 289.458
22297 1 -13.4554 -96.1177 -16.0437 -449.73 288.307 -140.475 -39.7136 51.8251 140.62 -305.658 695.85
12392 2 -16.176 -95.1569 -18.0635 144.193 -117.725 107.683 45.6299 -18.4389 -66.3649 -112.792 284.342
4797 2 -13.7946 -94.7564 -16.8477 195.356 -101.859 69.3746 27.2199 -22.7368 -79.0994 -113.673 298.845
2580 2 -14.0844 -94.3316 -19.3683 142.045 -127.566 117.83 27.9 0.811932 -56.2838 -112.868 280.337
7394 1 -14.8355 -94.183 -17.9674 -313.516 173.926 -167.704 -83.4514 49.3573 138.813 -309.084 523.252
4836 2 -18.514 -93.8793 -15.7454 98.7108 -31.5832 82.5274 21.3359 -32.7207 -54.0956 -114.261 168.779
2492 2 -17.0359 -96.1904 -14.9106 169.934 -116.58 41.8859 26.468 -45.3454 -50.2126 -116.409 278.628
9715 2 -17.8453 -93.5635 34.6259 83.9424 -110.291 112.904 9.66855 -21.3528 -66.6261 -109.128 243.22
29938 2 -9.54735 -98.6263 -20.7108 67.1198 -67.6668 165.15 30.4063 53.9236 -43.1365 -114.225 240.976
27156 2 -10.9388 -98.4177 -16.0374 135.208 -47.5453 50.6363 32.85 -58.5139 -42.2568 -119.509 209.669
5029 1 -11.2208 -97.8323 -17.5374 -287.835 156.646 -135.995 -45.8847 37.4095 70.4289 -298.254 422.521
12588 2 -12.5529 -96.9408 -17.0819 211.365 -138.807 57.3159 7.50717 -15.0823 -54.4312 -115.587 319.605
9701 2 -10.1042 -96.7705 -17.9485 101.3 -83.7241 77.3491 20.3911 4.40271 -33.5152 -122.435 187.22
17479 2 -7.62809 -96.4067 -19.1389 169.673 -96.9115 114.909 50.8025 -20.5064 -34.5893 -119.239 268.441
12301 1 -8.10303 -96.4265 -15.057 -347.274 187.374 -163.379 -98.3184 -19.0739 39.4762 -291.812 506.076
7245 2 -8.05514 -96.1795 -16.5877 166.388 -68.9249 40.444 44.5878 11.8318 -28.2728 -124.121 224.455
12292 1 -8.72901 -95.9384 -18.045 -259.951 173.594 -153.981 -81.1233 -3.01724 34.7396 -289.061 420.284
29640 2 -9.17536 -94.4975 -18.5381 148.054 -124.736 94.085 29.3359 17.5465 -16.969 -119.963 258.794
2210 1 -12.7711 -93.877 -20.2564 -201.652 275.156 -306.949 69.4696 -64.1093 68.7812 -308.138 574.144
2010 2 -11.6596 -93.8914 -19.0148 139.86 -143.34 98.4489 -46.0718 55.6617 -41.7341 -116.481 301.79
12299 2 -10.2132 -93.9651 -16.4205 128.071 -84.264 52.4067 0.648502 10.669 3.05076 -120.703 187.392
7009 1 -8.88371 -93.6134 -15.5244 -257.517 167.325 -138.861 -49.532 37.2352 -40.2296 -295.723 400.667
4789 1 -10.414 -93.5899 -18.0789 -306.542 228.677 -126.72 55.1533 -112.099 21.5043 -296.925 520.349
17867 2 -7.67548 -93.282 -16.5868 181.697 -103.499 17.149 73.7501 -22.9096 1.45501 -120.328 281.749
12366 2 -4.04244 -98.7793 -15.9242 180.988 -37.6337 31.0089 54.3053 27.2756 24.2933 -121.63 224.388
7465 1 -4.48782 -98.7766 -20.1991 -296.757 162.633 -237.541 -140.549 177.986 61.9337 -301.465 594.263
9875 2 -4.05025 -98.7745 -18.6875 159.007 -74.393 104.529 77.2654 -51.873 -33.9942 -117.658 272.355
12266 1 -4.76062 -98.2865 -17.305 -278.828 98.2235 -169.919 -161.005 19.1526 17.3663 -292.546 439.019
7389 2 -5.88183 -97.8606 -20.2991 164.625 -83.7991 101.555 51.308 -40.1948 -48.6417 -116.163 264.323
12204 2 -4.70069 -96.6954 -17.3902 146.271 -60.1811 104 89.4045 -13.4012 -21.6133 -120.299 248.198
12193 1 -6.85311 -96.6071 -20.5619 -348.387 204.356 -245.541 -123.213 20.1507 135.632 -304.958 601.003
9818 1 -4.04988 -95.2006 -17.2755 -320.797 186.169 -267.876 -166.024 12.4612 43.7354 -296.079 567.347
7385 2 -3.13798 -95.0436 -18.6489 179.667 -116.085 114.451 68.5151 -23.7505 -16.8313 -118.309 298.429
14894 1 -2.23799 -95.0166 -19.9507 -364.175 201.798 -195.741 -57.0777 -1.65393 -25.9405 -299.31 514.943