ITEM: TIMESTEP
140000
ITEM: NUMBER OF ATOMS
29952
ITEM: BOX BOUNDS pp pp pp
-2.5141811457830563e+01 3.5127105799817414e+01
-6.4670927900977034e+01 7.4656222242977037e+01
-2.0959296319110130e+01 3.4827149464552392e+01
ITEM: ATOMS id type x y z v_StrAtomXX v_StrAtomYY v_StrAtomZZ v_StrAtomXY v_StrAtomXZ v_StrAtomYZ c_PEAtom v_VMS
27573 2 -22.2914 -60.572 -16.3509 15.2464 -59.7138 15.7537 -62.1012 -2.75065 -54.4246 -88.2605 161.666
22574 1 -20.8951 -60.5218 -17.1678 -0.826103 152.021 -57.7167 104.451 -54.0247 81.3156 -360.571 310.832
27371 2 -21.1192 -60.6475 -18.7815 -14.5485 -76.834 58.6564 -28.3929 9.12869 5.71183 -86.2872 128.703
2608 1 -23.2377 -59.6903 -15.3277 -77.1343 135.743 1.46981 121.207 65.3749 151.8 -352.924 400.982
22558 2 -20.1775 -59.1042 -16.7078 40.0625 -81.5818 -48.0999 -20.0201 23.3263 -82.8972 -88.6679 187.873
24854 1 -24.0322 -59.4119 -19.9038 36.2089 2.30223 35.1642 15.5906 57.4928 -77.7009 -347.062 172.838
27543 1 -21.3766 -60.9292 -20.3475 0.12687 86.3126 -26.4563 6.43704 83.5809 -52.6363 -358.453 199.547
2190 2 -19.9402 -61.7095 -16.6567 -15.3234 -36.9024 -12.4827 -50.4713 25.8823 -61.0946 -85.3172 146.234
2780 2 -22.6668 -59.9296 -20.6021 5.55043 -0.709063 -13.3526 -17.8977 -58.3595 31.3052 -91.517 119.986
202 2 -24.7839 -60.2211 -15.2954 29.4826 -29.316 -17.5018 -10.2996 -45.3618 -63.3706 -90.7202 146.427
27934 2 -21.8358 -62.3719 -20.7772 -12.1379 -25.204 -23.8607 -4.5695 -35.2358 21.095 -88.6734 72.645
27848 2 -24.9057 -60.823 -19.6482 -15.6667 -17.8314 -21.7794 12.1781 -29.8619 49.8187 -91.5687 102.93
27526 2 -19.8773 -63.6906 -14.804 40.5944 -8.28226 -84.0633 -9.44831 -10.4393 -40.8761 -88.8483 132.072
29884 1 -19.0878 -62.4321 -15.4705 -58.6824 16.1844 163.472 83.6716 -13.5228 117.368 -358.713 318.124
5219 2 -17.7287 -63.067 -16.07 6.84997 -13.4093 -58.5474 -60.4244 -7.96755 -22.6771 -86.0015 126.684
7877 2 -15.1105 -59.3936 -15.6554 97.9612 -109.42 -87.6568 4.23054 -14.2157 -104.375 -89.1008 268.904
27639 1 -16.259 -63.4987 -15.4338 -7.65934 4.0904 155.593 58.8273 29.6695 13.3474 -358.021 196.032
5000 2 -15.549 -62.1142 -15.3311 37.0157 1.97197 -113.746 13.6797 -10.0441 -54.075 -88.103 168.257
27754 2 -18.5933 -58.6756 -14.7864 27.2173 -51.6875 -40.9716 -41.0118 -10.3076 -50.5644 -88.3164 136.126
29857 1 -15.2504 -60.6099 -14.6307 -193.565 99.639 257.618 -37.86 35.8355 167.387 -356.501 499.453
19 2 -12.9807 -59.0483 -19.9024 -0.582771 -95.6238 72.4626 -52.5672 65.378 -6.15235 -89.3818 206.245
7541 2 -11.1356 -59.3782 -17.9066 -13.4845 -88.6452 43.5272 -62.5668 25.3493 -20.3784 -92.5111 167.636
10070 1 -10.7614 -60.6062 -16.9214 17.8442 125.374 -45.4858 130.933 -18.889 -4.81263 -350.954 273.776
9869 2 -9.28029 -61.7631 -19.9446 -35.4132 -12.4252 8.29384 -49.081 39.1308 -8.09655 -91.4068 115.979
5096 2 -9.40404 -60.4835 -16.0657 20.9671 -64.1437 19.9481 -61.4853 33.2556 1.61675 -94.1937 147.733
24766 2 -10.7234 -61.9826 -17.8694 -20.6888 -4.41675 17.1009 -51.3151 0.32675 42.1584 -87.3072 119.624
14775 1 -9.76468 -62.8903 -18.7821 50.103 1.21618 24.7448 62.6425 -78.6608 -40.8311 -356.104 192.69
9859 2 -8.44335 -63.2992 -17.9866 -25.7348 -12.3049 -7.47842 -46.5663 53.3291 6.13981 -91.6862 124.172
5201 2 -11.8041 -60.9516 -15.7398 28.1794 -53.0746 -45.6547 -9.39202 3.0292 -51.2191 -91.4419 119.234
10081 1 -8.24982 -59.8356 -15.1629 -76.698 76.0017 -13.588 90.462 -90.7127 26.7583 -342.025 262.769
118 2 -8.02555 -59.3158 -20.3727 -55.4621 28.2794 24.8384 -22.4537 30.4034 -20.681 -92.1822 110.928
10162 2 -10.3604 -64.24 -19.4473 0.107468 -15.1917 -30.6979 20.1695 61.9628 -1.40314 -88.4162 116.001
10110 2 -7.38614 -58.9464 -16.1788 -12.1053 -9.92041 28.424 -27.3791 41.5268 -14.8193 -95.0478 98.1833
24880 1 -6.85003 -63.6117 -18.044 88.0855 -11.2008 -42.7018 92.1001 -152.053 53.6673 -345.637 342.675
4986 2 -6.45958 -63.5952 -19.5761 -51.3952 -12.4128 21.6704 -58.3627 56.4351 -18.5379 -94.9476 157.525
2710 2 -5.46983 -59.5934 -17.7793 -36.6595 12.027 47.9477 -39.7163 50.1998 -10.0632 -91.9445 134.185
7673 2 -6.0807 -62.1696 -17.6591 -40.2387 -5.41029 33.0597 -53.6068 75.9801 2.57769 -95.273 173.184
12650 1 -5.04442 -61.0768 -18.2856 58.0836 -9.65658 -47.211 72.2139 -146.745 10.7688 -348.287 298.56
29802 2 -5.19383 -61.4969 -19.8982 -42.4006 0.0501301 36.8539 -29.5103 67.5795 -37.3309 -91.9419 158.787
12590 1 -2.45922 -61.9437 -16.8334 25.1403 -86.96 15.9775 49.0731 -43.7536 69.5789 -337.933 197.774
15069 2 -3.54709 -61.3577 -17.8571 2.24668 6.62799 8.21156 -21.3296 55.1308 -22.3755 -94.1328 109.607
10172 2 -3.38038 -62.7047 -15.6745 -12.4565 59.8608 -6.23053 -50.8186 19.163 -39.2326 -100.61 135.223
15093 2 -1.76701 -60.7868 -16.006 -48.8579 75.1563 -36.5953 -0.915895 -4.05758 -26.3744 -98.0843 127.074
7582 2 -1.62464 -63.1541 -17.59 -45.1153 32.6218 41.2408 -7.19725 6.92941 -37.4394 -99.9726 106.264
12672 2 -4.92395 -58.8243 -15.2527 -5.6442 8.26539 -4.76673 -31.8453 27.3194 -5.71573 -96.533 74.5753
10072 1 -5.81364 -62.6525 -20.773 123.211 35.9285 -123.203 130.531 -116.336 35.9338 -348.987 377.387
2690 1 -0.715424 -59.7626 -15.2185 129.58 -214.549 30.427 -23.0719 30.8041 2.1878 -342.716 313.995
12312 2 0.108233 -58.8634 -19.2021 -56.1467 17.3528 53.6008 2.94074 -35.9679 -16.0223 -95.2948 118.564
10100 2 0.827053 -63.6996 -17.5778 -87.9941 43.7141 53.7233 42.9504 -39.4682 -75.2288 -102.062 214.362
17668 1 2.14284 -63.2762 -16.8434 148.12 -68.2848 -123.158 -83.3922 82.978 146.078 -336.917 408.965
15176 2 2.92819 -62.2867 -17.8626 -77.8241 29.8115 77.1116 50.9633 -69.4174 -94.4641 -95.9032 260.638
22477 1 3.33655 -61.8446 -19.336 139.638 -48.4489 -92.8421 -95.2951 119.265 149.843 -336.918 427.752
19794 2 1.82487 -62.5365 -15.43 -78.3729 49.3649 52.9267 40.4105 21.994 -27.0706 -98.5903 159.164
17686 2 0.110059 -59.0459 -16.5013 -81.7101 77.2929 15.662 40.7651 -40.1839 -19.9709 -95.0557 174.089
17477 2 4.21694 -60.4193 -19.1807 -58.9918 19.4867 33.568 38.6007 -20.5689 -6.89558 -98.694 115.517
22458 2 4.2391 -63.087 -19.9334 -59.1739 14.8635 32.3276 20.9368 -44.9003 -84.1826 -97.622 188.952
17837 2 2.03856 -61.902 -20.3261 -77.7921 12.9673 48.2995 57.2751 -57.8068 -68.2488 -100.461 215.713
7215 1 -0.128408 -59.4402 -20.7564 33.8918 8.67478 -50.2435 50.8328 35.1612 76.4557 -345.207 185.985
15074 1 -0.57769 -64.3564 -17.9113 173.719 -105.782 -166.567 -44.1242 3.68418 89.6265 -330.494 358.867
14853 2 0.179989 -60.7434 -14.4187 -64.8071 103.236 -2.57936 19.1663 41.6703 -16.8972 -96.5517 169.769
14859 1 5.02752 -64.3557 -20.684 124.786 1.677 -114.677 -9.03927 78.0331 130.139 -346.028 335.171
15061 1 4.98381 -59.0875 -18.6691 97.5374 -26.7441 -101.922 -39.703 -35.9335 -119.685 -342.767 286.386
19999 2 7.91441 -61.5863 -19.7247 -26.4405 -29.7974 39.6516 -10.5333 66.76 -14.0604 -91.5066 137.47
113 2 9.10037 -59.9113 -17.9402 -49.7275 -20.3399 66.4376 5.16807 103.114 -0.164125 -89.9696 207.176
20091 1 8.00302 -60.1408 -19.1273 35.2196 76.8104 -105.035 -38.5278 -195.949 -35.4339 -351.88 388.127
17866 2 6.51246 -59.6724 -18.6229 0.704301 -32.3809 51.1009 12.1284 73.3638 36.0043 -92.7655 160.558
16907 2 9.96037 -59.6252 -15.3839 -91.1503 34.4265 -3.65754 -5.78378 38.752 -13.9178 -94.5372 132.756
16943 2 7.93295 -63.8513 -16.0832 -1.83969 -14.1269 0.128462 54.6659 31.0296 -2.9708 -90.493 109.814
22287 1 10.4249 -59.6731 -17.0227 95.7147 -42.3971 -45.3893 37.1477 -118.651 14.4689 -352.536 257.874
22674 2 8.67729 -59.188 -20.308 -21.6109 -41.6252 18.6611 36.7682 42.499 32.7842 -91.8663 124.607
22377 2 6.48605 -63.6753 -20.7453 -34.5407 -12.4948 44.6019 -4.46758 -12.9706 -42.7851 -93.7993 105.172
12406 2 11.2633 -63.4605 -17.3332 5.77611 -46.172 22.9282 6.26585 18.2818 18.7547 -92.6818 77.8427
22497 2 11.4553 -60.8431 -17.2019 -14.9493 13.6263 14.7812 -42.653 31.1869 -4.69181 -90.0876 96.3984
19909 1 12.1484 -62.2319 -16.782 -7.61628 39.2079 -18.2537 31.5068 -28.4284 -48.9778 -347.725 124.108
14970 2 13.6374 -62.2294 -17.3855 -11.9114 -42.5864 37.8581 12.5174 -9.90576 7.50146 -93.4002 76.6674
10179 1 15.2474 -62.1624 -17.2505 46.3565 99.2955 -113.189 -98.5232 25.2504 1.3988 -347.259 260.274
17474 1 15.6227 -59.9453 -19.3633 49.294 73.3637 -52.065 -79.1818 52.8033 29.2938 -360.743 207.463
22188 2 15.7234 -60.69 -17.8419 -23.0138 -28.3129 68.9462 49.3978 -24.6738 -28.7819 -88.9811 143.541
19865 2 15.5707 -62.5924 -15.7735 -9.41485 -67.7313 -1.7405 28.3882 15.2067 35.9417 -97.6142 104.375
17288 2 16.0651 -63.2031 -18.1693 -24.9363 -49.681 61.3963 59.2618 -22.1725 1.30782 -93.3094 149.056
15204 2 14.5697 -60.9079 -20.2154 -23.049 -56.7976 50.5285 39.4909 12.6025 -12.1863 -86.6739 120.981
15155 2 12.2161 -62.3966 -15.1908 -2.1431 -9.19561 -24.1233 2.53589 1.60208 34.1469 -96.9923 62.4731
22253 2 16.4965 -64.6794 -20.3414 -52.1938 -68.2657 68.2223 51.9559 -20.2615 0.694651 -89.8057 161.322
12471 1 15.9955 -64.6731 -18.7823 68.9247 148.224 -122.7 -86.6405 41.3432 -22.2681 -349.06 295.532
17577 2 17.005 -59.7707 -20.1771 -3.9579 -66.8099 26.0366 54.2263 -26.7195 -10.5216 -89.383 134.278
19699 2 12.8787 -62.8331 -20.9108 -6.19552 -75.4914 59.8076 14.6907 27.9652 -40.9391 -87.3399 147.491
12874 2 19.7118 -61.5555 -16.9732 -11.9164 -64.674 48.3296 92.7152 -0.958584 -17.031 -92.6867 190.401
27469 1 20.0688 -61.0594 -18.4112 101.622 118.67 -174.404 -143.303 -53.4174 35.9261 -352.042 393.988
22650 2 21.4516 -60.13 -18.5538 -47.634 -75.2426 102.779 53.0784 42.3451 -1.98798 -91.4401 203.426
27450 2 20.035 -62.3619 -19.4109 -61.3977 -46.8019 58.433 60.1515 4.78059 -5.76028 -88.5161 154.422
19685 2 19.1148 -59.8365 -18.9469 -30.0872 -81.7515 78.8078 66.2066 17.5342 -13.5976 -91.7112 186.495
25072 1 19.6095 -62.0107 -15.4293 -59.2325 75.2366 20.6371 -154.5 76.4058 15.091 -345.912 321.759
24868 1 18.5341 -59.3695 -20.3172 52.9189 151.391 -91.2756 -94.057 17.1164 21.8413 -350.558 271.179
25141 1 20.1678 -63.565 -20.4665 74.4419 75.0543 -66.2806 -93.9398 49.6932 26.7603 -365.932 236.474
19870 2 22.0121 -59.5169 -15.5952 -3.10086 -44.4146 -25.877 32.4759 28.6582 2.73515 -97.6033 83.2765
27203 2 19.3783 -63.6354 -15.2755 15.446 -21.3357 -13.3695 50.027 -13.175 -9.76414 -93.7661 97.1505
27107 2 22.894 -62.0856 -16.4293 35.7945 -40.3666 -57.6406 15.4412 16.0773 9.14449 -90.8333 95.6876
22550 1 22.4133 -61.0261 -15.2975 -83.5224 56.5699 117.802 -87.2986 -45.487 -4.49654 -344.358 247.153
26983 2 18.445 -61.1883 -14.7083 13.0357 -12.4943 -12.8038 52.9354 -38.0442 36.3921 -96.0651 131.839
27352 1 23.7946 -63.3951 -16.7445 -45.7485 120.3 82.8455 -8.14477 33.4879 -45.17 -363.896 180.111
25102 2 25.6313 -59.0529 -17.2867 52.9115 -94.3639 22.6501 -7.15339 -16.0717 2.38898 -86.8481 138.183
29773 1 26.6193 -60.3103 -16.8201 -164.825 214.529 16.9741 0.579391 54.6888 -66.3684 -363.588 360.807
27851 2 24.631 -63.1271 -18.0489 -1.96091 -120.61 19.8704 -19.4408 -49.2474 29.0239 -81.3234 167.575
27834 2 25.9595 -60.6684 -15.3562 72.726 -90.3946 -68.9497 -11.0155 -1.96484 41.2857 -92.4607 170.468
5056 1 25.9684 -62.7892 -18.809 37.6003 221.771 -95.508 58.7497 106.925 -56.4491 -377.773 361.059
22677 2 25.6596 -61.968 -20.1569 -29.235 -151.999 86.6137 -54.0065 -36.0267 -7.53723 -79.2635 235.644
27372 2 28.0588 -59.7804 -16.4336 122.245 -112.463 -43.9155 3.99095 -52.7685 18.1723 -85.2588 230.413
7580 2 26.6888 -61.6633 -17.8134 29.4645 -121.326 31.6543 -10.6985 -43.718 47.1472 -80.6194 189.258
22296 2 24.8208 -63.5149 -15.4501 4.09668 -49.905 -76.5065 1.95283 13.4418 -15.995 -86.7494 79.8833
24958 2 26.6488 -64.2906 -19.3155 -17.3838 -63.4835 -10.4104 -52.9986 -52.4261 34.1069 -75.2811 150.523
27052 1 29.2089 -59.8225 -15.2771 -252.955 169.871 183.164 11.9597 144.378 -17.333 -356.798 498.442
152 2 31.2928 -61.0696 -18.3557 -28.6995 -95.5439 57.8417 2.51571 -75.022 16.4313 -84.9021 188.298
27561 2 30.6147 -60.3232 -15.9647 72.2861 -74.7289 -40.529 -24.8302 -82.4579 13.0975 -87.6354 201.289
25239 1 31.5633 -60.3562 -19.8062 44.7758 124.4 -3.81113 -16.3666 64.1031 -37.1178 -360.342 172.725
24663 1 31.6021 -61.359 -16.7672 54.5879 125.779 -56.7455 19.2429 130.875 3.28929 -362.164 279.137
19866 2 31.4322 -62.9026 -16.207 -37.3444 -11.3344 -7.29288 -14.8432 -42.4891 -11.4431 -84.4272 85.2511
25126 2 33.043 -60.7557 -16.4391 -35.9069 -43.0177 32.6787 14.3771 -36.1335 -8.01818 -89.0933 99.8605
20065 1 33.826 -60.0569 -15.2541 -22.4665 30.6921 41.058 -20.435 77.384 74.2573 -351.025 198.102
5004 2 32.9287 -60.8413 -20.451 -21.9137 -45.6359 -46.5341 12.3173 -31.6127 28.194 -91.7177 80.1424
20279 2 33.7722 -63.2522 -20.5874 -17.1659 20.2908 -71.8434 -1.6782 -50.5712 -4.99607 -88.9492 119.148
22588 1 31.7644 -64.17 -15.232 31.4923 27.5556 90.9092 27.4872 43.4383 -12.9533 -363.859 110.501
22178 1 34.3426 -61.6407 -20.6199 -4.39498 49.9138 121.448 10.738 107.443 -76.3379 -350.435 253.794
2215 2 33.3756 -64.303 -14.9466 -8.55182 -25.1198 -40.849 -41.993 -0.556926 3.42757 -87.9535 78.1596
7757 2 31.7416 -58.7113 -19.7298 -16.0777 -33.9174 1.056 -3.44372 -39.0959 14.683 -87.5106 78.6467
7320 2 -23.8432 -58.5571 -18.5449 -60.9104 -43.4992 23.7593 -22.925 -7.33056 5.25767 -95.1349 88.4235
4807 2 -23.3261 -58.1809 -16.0106 6.94091 -56.3905 12.8763 -49.7222 -33.0626 -54.8409 -93.5715 155.373
27640 1 -23.6811 -57.3362 -17.3809 39.732 97.5047 -74.7586 40.5408 87.7953 41.2363 -342.178 237.1
26985 2 -22.5229 -56.373 -17.9393 26.9599 -40.315 23.0874 15.753 -38.824 -14.7036 -95.0521 100.972
307 2 -23.0364 -53.7396 -18.72 16.2373 -39.1315 10.9529 29.3358 -44.8144 19.1789 -96.5689 111.854
5376 2 -23.9148 -55.9465 -19.9627 -1.62988 -93.7016 28.1007 28.7701 -51.8444 -5.16576 -98.0259 150.749
2594 1 -22.7876 -55.2226 -19.2079 -39.4713 135.854 -71.4643 -85.2403 139.69 -45.4075 -340.974 351.987
27641 2 -21.4401 -55.1412 -20.0698 39.1353 -98.9585 40.2729 29.5785 -62.4188 24.6764 -95.8631 188.064
25063 2 -20.8999 -53.8004 -15.4495 23.2177 -85.8678 14.0005 13.0894 0.851121 -1.74077 -95.0601 107.259
25044 2 -19.6282 -56.3724 -15.7593 5.1594 0.422476 -22.7009 -39.8409 -15.3994 -34.926 -87.9405 98.9923
27595 2 -24.859 -54.2618 -15.5819 24.9887 -56.2468 -10.6465 25.9774 -50.1068 -5.74932 -96.6763 120.954
2758 2 -24.9251 -56.3043 -17.2091 -21.2143 -68.5339 38.4989 -8.41665 -77.5777 0.17401 -98.1277 164.006
4994 1 -19.7345 -54.8813 -15.0396 38.3779 56.7563 -25.977 48.6455 20.5353 15.6292 -353.867 121.487
27619 2 -24.7444 -58.2588 -20.8149 -12.9227 -18.8204 -13.1285 14.0454 -32.2964 -10.0775 -95.6103 63.7124
4983 1 -19.1507 -57.9559 -16.1 -65.5447 68.3587 56.0104 68.2287 30.8377 134.517 -359.405 295.858
4993 1 -25.1318 -56.7306 -20.698 -19.0565 164.087 -61.1659 -8.50055 57.7599 23.4488 -341.188 234.311
5105 2 -13.3467 -58.5092 -17.3243 24.0402 -122.622 3.24632 -19.2087 30.9916 -60.169 -91.8156 183.69
27458 1 -14.4589 -58.1062 -16.2741 -179.258 218.535 93.3225 -1.8011 -48.4327 155.007 -355.96 450.818
192 2 -17.9726 -57.8206 -17.1382 47.0047 -94.2044 5.72561 -36.9779 -31.0236 -86.4901 -86.9107 212.711
5180 2 -16.7331 -57.8911 -19.5418 23.1902 -115.235 27.4453 -35.6155 -9.30204 -45.0001 -89.4504 172.941
5196 2 -18.8831 -55.5806 -20.2787 63.9953 -114.93 14.157 -34.787 -36.7668 -10.7095 -94.047 183.332
2700 2 -18.4945 -53.2896 -19.2471 22.8222 -75.6277 56.0716 -32.1493 -59.4726 36.9233 -91.1357 178.53
2407 2 -15.5603 -57.1936 -17.2007 102.074 -113.248 -12.1319 -41.9436 36.477 -76.1558 -86.5647 247.96
5177 2 -17.2904 -55.6418 -18.3515 35.7864 -81.2373 25.8077 -61.8171 -30.4789 -16.9965 -88.5157 166.565
5091 1 -16.8789 -57.1668 -18.1073 -109.482 232.647 -63.7892 107.157 23.4733 155.641 -359.55 460.739
7789 1 -17.7111 -54.6848 -19.5604 -79.4847 195.376 -68.9498 83.8827 106.239 -24.3345 -351.944 359.874
5280 2 -18.4304 -53.9625 -15.3246 9.04723 -73.3647 4.10009 -19.0333 -25.5007 2.76191 -89.3412 97.309
7509 2 -13.7746 -57.039 -15.2621 54.6752 -46.9759 -55.5146 7.93833 32.7715 -13.28 -88.2244 123.344
7603 2 -16.4486 -54.5786 -20.4694 49.0964 -95.5557 34.5739 -9.29158 -42.9232 -31.0242 -92.1078 166.458
29858 1 -17.8673 -52.5231 -15.7334 -142.014 213.525 -13.4753 -41.7571 52.5753 -6.73081 -356.088 333.001
9889 1 -12.2768 -58.4781 -18.535 11.0153 186.063 -120.894 83.6657 -93.1087 56.1302 -351.713 357.2
10273 1 -7.8004 -57.6607 -20.4921 75.8126 29.9028 -37.5699 16.0073 -2.72802 9.10192 -348.555 103.911
10188 2 -12.4196 -53.9832 -18.4507 -32.7979 -31.5873 21.2259 2.25655 25.3513 -4.97075 -90.4259 69.8004
5301 2 -11.9367 -56.8068 -18.5931 -10.2185 -35.2162 30.3836 0.105972 50.5309 -47.2013 -91.6425 132.787
12665 2 -10.08 -55.023 -18.1111 -10.7183 -18.5989 24.4883 -24.1387 35.8754 -43.7989 -92.2985 113.768
5092 1 -11.6199 -55.3378 -17.8711 62.5956 -12.6412 -54.8855 14.3126 -64.3817 82.7512 -352.34 210.277
7888 1 -8.70469 -54.9908 -18.9291 28.5352 56.4389 -37.0095 88.0562 -62.2301 61.0482 -349.536 230.139
2771 2 -11.9188 -55.6302 -16.2939 -40.5145 12.7241 11.4382 -3.84953 52.0131 -16.8971 -91.2767 108.557
12887 2 -8.74606 -53.6109 -19.7487 -8.45438 -16.9743 -6.06007 -53.3044 33.1184 -42.2862 -92.695 131.444
10557 2 -8.53639 -56.4428 -19.8062 -13.6182 -31.0463 12.7776 -34.0882 3.2903 -8.69114 -93.053 72.1499
15201 2 -7.68551 -55.6699 -14.9897 -30.1109 40.8441 9.00331 -10.8935 29.4699 13.7385 -95.7712 85.5386
7583 2 -7.53967 -55.0861 -17.7942 -28.4054 -43.6854 82.7002 -13.607 59.0289 -5.39118 -91.8534 159.284
10083 1 -12.3919 -56.3064 -14.9493 24.3294 -5.11737 31.3661 -6.07993 -126.801 -18.286 -353.439 224.663
2678 1 -12.9093 -52.4371 -18.8233 20.9396 138.776 -135.304 3.08493 -31.4515 -34.1308 -353.176 251.395
7562 1 -5.87121 -58.5394 -16.5565 51.4586 -19.6506 -62.0017 83.4411 -84.6091 32.8842 -347.393 235.519
2572 1 -6.80265 -55.5113 -16.3157 76.8996 -14.4365 -102.315 7.84505 -82.7132 -12.7122 -348.38 212.803
5172 2 -6.16368 -57.5064 -20.2693 -37.755 -33.2155 23.5347 -9.21593 16.184 -17.9187 -92.9541 74.1796
14969 2 -5.98388 -56.9167 -16.6343 -36.3761 14.3255 38.0707 -20.2501 44.9908 -30.1729 -92.6409 119.885
5374 2 -5.89966 -54.1478 -15.9437 -12.2515 -4.22455 14.3863 17.5298 8.35298 23.3167 -93.7994 57.6401
10068 2 -3.65822 -53.0969 -18.7887 12.2174 -83.6513 80.2381 4.73151 41.1237 7.27961 -90.1269 160.12
17845 1 -5.08606 -52.7596 -15.5248 -79.5642 43.4474 38.3526 -8.51274 13.4415 -33.4661 -345.346 136.567
12548 2 -3.60019 -52.873 -16.097 42.419 -43.9069 -4.79593 6.85544 9.22433 24.933 -93.8142 88.6947
17690 1 -2.71965 -53.1158 -17.4888 -26.2944 127.902 -110.987 -12.5424 -44.0011 -45.168 -349.61 237.506
7974 2 -1.95478 -54.4666 -17.5618 -6.17664 -43.4999 54.4472 -5.88642 25.4048 4.88674 -93.411 97.1739
15175 2 -4.77357 -55.0655 -20.1152 10.198 -41.6953 6.43389 29.5102 40.385 4.35008 -91.6038 100.369
7779 1 -4.09513 -53.579 -20.2351 -51.5861 97.2512 -49.0933 -15.7069 -91.4436 35.0381 -353.088 226.488
7780 1 -5.02679 -56.4581 -20.8463 -19.9536 101.539 16.1158 -19.1505 -35.2297 -7.74231 -348.629 129.162
7788 2 -5.07896 -52.4142 -20.8339 27.2014 -28.685 2.87104 -19.5929 41.7572 -61.7299 -90.2765 142.021
10387 2 4.35178 -58.3848 -17.3218 -69.7831 28.9268 73.3931 40.4206 21.834 59.7399 -93.7514 182.067
7681 1 0.385271 -58.1095 -17.7919 132.496 -93.0168 -77.0577 -63.5813 77.3272 -8.94183 -344.812 278.959
15157 1 -0.495614 -55.1691 -17.6047 79.8829 -28.329 -111.254 6.84657 -20.8959 -18.6715 -345.154 173.367
17555 2 1.93947 -57.528 -17.4899 -44.8089 28.1408 45.8169 45.5384 -16.2406 39.7511 -96.1624 136.662
7882 2 -0.502441 -56.7233 -17.7362 -70.8546 42.0159 14.1686 -4.1402 -28.3689 -7.33511 -93.801 114.014
20002 2 0.0132865 -54.6682 -16.1942 -33.0581 10.7808 25.1545 10.3537 5.62388 19.786 -97.6161 65.9509
10176 2 0.41216 -54.4938 -18.7729 -21.169 4.82245 57.9317 10.2658 13.8649 -9.95651 -95.7998 77.8897
17571 1 3.39431 -57.19 -16.7283 126.566 -37.1626 -148.339 -117.139 -30.1574 -104.939 -342.446 366.469
24873 2 4.02987 -55.7086 -16.9161 -58.2201 4.55771 65.0048 36.4302 24.2705 43.472 -99.6159 151.022
10062 2 4.25011 -53.7015 -18.5961 -81.5298 15.0851 80.4578 -3.53125 63.7614 7.74402 -99.852 179.827
10286 1 0.798161 -53.6288 -20.1089 29.3056 -7.41358 -102.437 -51.0315 -61.8004 13.8324 -340.512 183.607
17678 1 4.00171 -53.7183 -20.2088 193.153 -71.8509 -133.745 34.3877 -84.9386 5.35396 -337.612 340.201
17659 2 3.18497 -57.3048 -15.1316 -67.4213 38.2225 71.9985 65.1149 26.0836 7.06879 -95.4306 175.444
15355 2 2.35956 -53.8214 -20.4926 -65.2344 22.4308 39.6417 13.3499 31.2632 3.03563 -98.9592 113.95
12646 2 4.64888 -55.1549 -20.6743 -96.3318 72.1676 60.5402 -10.3204 25.4464 30.9565 -96.3761 178.059
14979 1 4.72728 -56.7555 -20.721 174.787 -115.562 -103.956 -10.4796 -27.4871 -131.215 -338.495 367.853
15159 1 4.87634 -54.283 -17.1837 87.5749 4.60282 -103.773 -16.3276 -67.3082 -41.7284 -332.886 217.34
17589 2 5.27917 -57.7173 -19.5846 -54.0669 19.5983 44.6908 15.1722 22.5682 83.4021 -98.014 176.042
17484 2 5.15772 -52.8936 -16.4445 -23.0498 7.59866 23.4417 5.3297 10.6498 6.42945 -101.879 47.174
23009 2 6.38993 -54.7224 -17.5622 10.0821 -28.838 -12.9882 3.81813 49.4589 32.3277 -98.5853 108.012
12661 1 7.89933 -55.0948 -17.6834 -50.0623 44.6579 -1.43128 12.643 -60.3204 -61.4009 -342.72 171.569
17681 2 8.1431 -56.396 -16.686 20.0981 -26.4713 -8.09655 -20.4727 40.9985 10.1318 -96.0204 90.877
15442 2 8.35855 -55.3778 -19.2039 -5.04065 -48.9581 59.1113 13.3031 18.0213 47.1523 -91.9575 130.525
10184 2 8.68809 -53.7997 -17.0378 28.6638 -4.39037 -78.4733 17.4387 52.2478 40.0404 -96.6189 151.463
15146 1 9.75123 -55.6522 -20.1444 114.731 109.587 -167.524 -88.2958 -4.1255 -15.3195 -357.017 319.979
20161 1 7.987 -56.7549 -15.0899 -89.4309 23.0007 73.5349 83.4981 -49.1076 75.9414 -344.134 257.542
9623 2 7.81757 -58.3288 -14.7699 3.49108 22.8359 -24.4034 -33.3698 28.7047 -43.0341 -92.4678 114.282
17570 1 11.0306 -55.7392 -14.9704 0.4634 -46.2365 49.3373 -70.5646 -209.398 44.5686 -341.185 399.114
17261 2 11.1085 -58.3298 -17.5659 -51.9064 0.950521 15.8017 0.982646 50.7711 -1.28925 -90.2211 107.426
14901 2 10.7868 -56.1099 -19.0117 -43.6149 -60.8371 59.3536 26.1339 27.6866 13.1262 -89.5245 132.431
17496 2 15.0631 -58.4369 -19.1385 -16.8098 -6.55217 5.25098 0.57017 -32.4787 12.892 -84.6877 63.4807
27681 2 11.4385 -56.0997 -16.472 -12.6934 -19.6641 9.60843 33.3864 57.506 9.51113 -94.1436 119.321
17499 1 11.6297 -56.835 -17.8887 4.34464 80.6299 -65.6533 -26.7328 -47.8291 -18.6745 -355.466 161.592
20084 2 13.1832 -56.8877 -18.4062 19.0544 -45.2664 17.5349 14.8624 -27.6851 13.734 -85.5563 87.0039
20129 2 14.6095 -53.3975 -17.3407 19.8336 -62.8212 16.4084 -4.28156 -32.683 -21.4424 -93.5522 105.827
25070 1 15.9115 -54.3371 -17.525 -21.324 68.6719 -54.9317 7.33931 -1.87583 8.07272 -351.284 112.343
22378 2 15.525 -55.9605 -17.8895 -6.76117 -15.4501 35.8208 16.1583 -8.4199 23.3566 -87.1914 69.9376
19888 1 14.6911 -56.9293 -18.8724 -4.62145 36.1162 -23.9287 -24.5962 56.5862 -49.4121 -365.54 146.848
12663 1 16.4134 -52.6267 -20.1397 49.3829 125.075 -71.8057 73.5435 -51.4092 -73.9355 -353.936 264.845
22770 2 16.5464 -53.6905 -18.8452 -22.8541 -49.692 3.22913 -16.4817 14.8374 28.4562 -92.623 77.4937
276 2 14.9389 -56.1258 -20.3562 -14.7681 -43.0919 37.8512 -4.21036 4.21016 23.8896 -84.5831 82.9451
17276 2 16.8382 -54.5717 -16.2633 21.6098 -51.7501 59.4582 -6.74619 12.2833 -23.6203 -92.7591 108.875
17372 2 11.2065 -54.1619 -14.9169 -1.90748 28.2595 -37.985 21.8692 101.447 -8.10327 -97.5911 189.225
27565 1 21.9033 -58.5808 -18.7392 97.2429 167.884 -238.582 -84.1456 -61.3224 -3.20548 -349.979 417.187
24955 2 21.7379 -58.1008 -20.2773 -39.653 -95.2843 98.2191 31.7075 5.48386 19.5533 -92.0679 184.464
25337 2 21.0592 -57.5233 -17.8461 -71.174 -51.2764 74.2182 11.3258 25.628 13.2878 -94.3648 146.72
22470 2 21.3665 -56.9035 -15.3731 1.83509 -19.7549 10.4259 -38.7898 -7.05663 17.9571 -96.5818 79.7252
24977 2 18.996 -56.1789 -16.4388 0.754641 -34.0367 44.0756 -29.0847 -33.5451 10.9096 -92.7263 104.235
4931 2 21.0926 -54.9328 -17.1487 -17.2139 -30.0178 42.8831 -27.0772 -16.4895 4.55738 -94.2886 87.3076
29897 2 21.2619 -54.4473 -19.6071 -49.8554 -50.0334 71.1744 13.081 -18.5727 16.496 -90.6806 130.516
2800 1 20.9183 -53.7623 -18.2305 22.0653 107.284 -97.7963 22.7497 43.4343 -3.0778 -349.589 197.697
29775 1 20.5913 -56.4353 -16.6798 51.1497 43.7415 -60.991 82.4154 40.4834 -28.5319 -345.137 198.835
20291 2 19.4959 -52.9359 -18.2945 18.3419 -66.4641 18.4019 -43.6587 -28.4138 5.67619 -93.8095 124.234
15087 1 17.8939 -55.5439 -15.4568 -23.4354 46.589 -118.148 -12.9132 35.3965 19.9013 -347.646 161.1
22551 1 22.4144 -58.0471 -15.0032 -41.788 109.804 -11.3233 18.8577 -34.0237 -18.3185 -338.015 157.596
27749 2 21.8202 -52.534 -17.7057 46.1651 -113.381 34.4109 19.5316 -30.3573 -30.703 -91.8663 174.514
22181 2 23.4583 -58.2895 -18.3438 -6.57941 -114.366 80.4488 12.3065 15.8838 4.66178 -90.0612 172.768
27466 2 23.7043 -57.6886 -15.9034 13.158 -75.0055 -7.75242 25.6877 32.3522 -23.4771 -97.1047 114.628
22274 1 24.5163 -57.7422 -17.3201 -60.3754 161.55 -46.3184 -52.3516 -10.4978 42.7254 -353.827 245.679
27084 2 25.0545 -56.213 -17.4736 46.7576 -66.899 -4.21047 71.8791 -14.6871 -20.708 -88.5147 164.791
25062 2 25.2451 -53.4129 -18.084 76.8872 -79.6691 -3.05261 49.9626 -34.9766 -62.8481 -88.7094 203.454
13 1 25.6907 -54.7325 -17.1895 -149.456 144.57 34.4259 -118.255 68.9774 111.708 -355.984 399.825
24803 2 27.2917 -55.0109 -17.3301 97.1413 -88.963 -15.6141 43.1064 -51.9644 -62.1465 -88.4533 227.214
2496 2 25.4512 -54.3361 -15.6174 79.4314 -84.7726 -13.1634 29.3471 -44.6377 -45.1562 -93.1305 187.112
25058 1 28.794 -54.8691 -16.7779 -156.586 163.821 24.759 3.28779 125.406 142.322 -352.775 430.606
20050 2 28.7851 -53.3083 -16.2599 52.1399 -73.2968 0.73741 -7.58044 -51.7958 -59.6196 -94.3664 175.537
27299 2 33.4761 -58.4854 -15.2026 20.5325 -36.0356 -27.544 11.1402 -78.5898 -8.73146 -94.6521 148.06
25257 2 29.2012 -55.9204 -15.6477 91.8765 -58.2047 -74.5073 -12.0312 -61.9879 -79.3132 -91.8186 236.792
22640 2 29.7278 -54.9439 -18.0397 50.1766 -95.0563 15.7771 -34.2598 -75.0878 -47.8582 -89.6649 211.156
24962 1 34.5359 -55.0277 -16.6523 -49.3822 132.316 -47.9981 37.2974 118.327 46.3674 -340.565 292.219
2986 2 33.8952 -53.8029 -17.6282 63.6536 -56.721 10.4222 -47.8234 -25.6497 -34.029 -95.2437 152.397
25079 2 33.3767 -55.7878 -15.8047 56.5634 -81.8882 12.0882 -18.5185 -71.9245 -48.6557 -96.1902 196.569
5368 1 33.0908 -52.7226 -18.6478 -129.736 133.056 -18.2978 73.2636 43.7429 61.7517 -345.99 292.363
472 1 30.5991 -54.6162 -19.2789 -93.8372 170.129 -37.4396 127.042 110.274 34.4327 -354.248 382.66
27929 2 31.623 -53.4056 -18.9433 56.7103 -98.1481 7.13955 -59.061 -39.777 -34.203 -94.0168 193.604
22662 2 31.2385 -56.0057 -19.7345 29.3404 -50.113 6.60514 -68.2588 -48.0176 12.2977 -87.9398 162.394
27710 1 32.1833 -57.2364 -20.1814 -14.7071 55.6338 -0.76233 61.7703 61.3914 -22.3521 -355.775 168.564
24966 2 33.7375 -56.8298 -19.8473 20.1914 -59.4927 15.3803 -20.6596 -28.5106 15.9542 -94.6021 102.333
24963 1 33.0757 -56.9448 -14.7086 -110.584 135.799 34.4246 16.6382 151.457 49.3848 -342 350.67
27820 1 -21.8892 -52.5705 -15.2305 -84.9287 184.525 -26.9807 -48.9982 19.909 -21.0689 -343.072 264.711
27626 1 -22.542 -52.2241 -18.2814 -80.9344 127.332 -16.8238 -27.9586 56.4094 16.8669 -342.775 216.513
4988 2 -22.6168 -52.1755 -16.6132 44.3405 -77.7349 21.8708 23.7751 -21.4124 2.8845 -96.1963 125.541
2926 2 -20.9301 -52.1907 -18.599 -4.39768 -70.3643 31.4679 9.51694 -34.1776 0.699514 -95.8781 108.542
10357 1 -19.3213 -52.0526 -18.4909 -4.8789 115.622 -78.9557 3.07933 72.8054 -12.6302 -348.871 212.939
10270 2 -23.3081 -51.1145 -19.1019 67.6112 -90.4073 -21.2629 -17.0483 -29.0008 -4.1178 -93.9676 149.234
2887 2 -23.4707 -46.8372 -17.8548 59.9487 -0.200313 -66.1212 -9.88721 4.75303 28.2545 -91.3667 121.18
5084 2 -20.291 -48.7683 -20.0079 -1.9587 -111.357 97.4856 45.9447 -53.5954 45.7291 -92.1797 232.293
2788 1 -23.8325 -50.1372 -20.2407 -163.898 198.937 -18.6195 41.2434 106.995 13.5248 -352.972 374.217
27552 2 -24.3806 -48.6192 -19.6531 48.4112 -27.2708 -18.8582 -36.5328 -28.7668 23.1704 -89.402 115.148
5556 2 -20.403 -48.4611 -14.977 14.736 -14.4021 -8.56151 28.8987 -27.1419 2.69139 -90.6907 73.825
2774 1 -24.8288 -47.6604 -18.2958 -55.2018 -16.3968 105.293 11.8576 6.08635 -49.8688 -352.715 170.382
4912 1 -19.3737 -47.6905 -15.9811 -11.2145 69.2402 -3.35851 -30.0906 7.30969 -37.5121 -351.375 114.021
107 2 -19.3573 -48.5122 -17.3864 -32.6203 -41.5191 -18.9885 37.5339 -49.4752 22.4992 -93.0243 116.081
2607 1 -19.1447 -48.9881 -18.8725 23.5977 144.779 -123.503 -117.449 75.7269 -48.4302 -349.788 346.082
2424 2 -21.3352 -51.1225 -14.7551 13.9464 -73.5294 1.77199 8.68829 -14.0209 15.0898 -94.6588 90.7446
10170 2 -16.2971 -52.358 -16.0777 150.159 -114.996 -63.7239 19.5462 -19.7001 20.0428 -85.6285 250.712
89 2 -14.3224 -52.312 -18.0758 67.1832 -92.6105 21.3323 6.35637 9.0763 32.6557 -87.1649 154.522
5013 2 -13.4727 -52.2686 -15.6759 34.9396 -72.8618 -39.7543 -33.2013 40.9992 -15.5047 -88.9866 134.978
5303 2 -18.7066 -52.0613 -17.0105 29.2381 -83.8149 12.651 11.6089 -16.368 8.31673 -92.4558 112.234
24978 2 -18.8768 -50.6023 -19.0034 -7.61837 -42.7433 63.2355 32.2699 -36.9039 -15.428 -91.3232 129.099
27553 1 -14.7554 -51.8545 -16.5853 -208.924 183.234 124.911 18.5012 -6.9032 -24.0862 -360.176 370.444
2873 2 -14.7096 -50.1611 -16.6075 70.7059 -87.3227 -77.3523 -34.863 -19.8516 -1.68063 -88.7095 168.327
2960 2 -17.8716 -48.1175 -19.4231 14.0864 -135.25 74.1991 51.2313 -52.5363 33.886 -91.7746 233.433
7923 1 -14.5754 -46.7636 -19.1557 -130.461 263.565 -101.101 -23.2103 9.69843 -51.9839 -356.717 393.135
15561 2 -14.5508 -47.8414 -17.9829 60.7666 -117.805 33.3748 -17.6215 2.75644 -14.5207 -88.5897 171.27
2500 1 -14.4809 -48.5863 -16.5411 -141.746 173.49 40.3756 79.4488 9.53765 -26.0449 -358.013 310.443
27499 2 -15.389 -47.8651 -15.3997 61.2836 -103.687 9.78331 -24.0418 -13.6608 60.73 -87.3802 186.359
2769 2 -17.898 -47.6947 -15.2884 30.2191 -74.2089 10.5076 24.5748 33.0992 40.3841 -89.9796 138.659
3068 2 -14.3737 -47.3319 -20.6969 55.3941 -153.131 69.4119 19.526 15.6653 36.1345 -91.8868 228.909
12959 2 -12.723 -52.2535 -20.357 -15.9286 -94.508 75.6249 21.1653 67.6981 18.5738 -92.8431 194.625
4995 1 -9.04971 -52.0366 -20.1591 8.13832 72.1337 -38.706 46.8394 -45.7029 48.0044 -348.609 170.437