ITEM: TIMESTEP
20000
ITEM: NUMBER OF ATOMS
29952
ITEM: BOX BOUNDS pp pp pp
-2.5141811457830563e+01 3.5127105799817414e+01
-6.0764559205352143e+01 7.0749853547352146e+01
-2.0959296319110130e+01 3.4827149464552392e+01
ITEM: ATOMS id type x y z v_StrAtomXX v_StrAtomYY v_StrAtomZZ v_StrAtomXY v_StrAtomXZ v_StrAtomYZ c_PEAtom v_VMS
27573 2 -22.1322 -57.2779 -16.3438 1.80227 -88.3862 45.6559 -23.1036 7.54458 -108.367 -90.5393 225.863
22574 1 -20.7215 -57.0806 -17.1148 7.36803 197.835 -106.448 61.9821 -88.968 164.254 -355.012 432.573
27371 2 -20.8822 -57.1324 -18.7166 -19.2629 -90.5763 69.0277 -14.7013 7.79776 -11.9783 -89.3568 142.963
2608 1 -23.0497 -56.4162 -15.4008 -70.8074 194.86 -91.0642 71.4236 87.4872 229.044 -351.589 521.556
22558 2 -20.2274 -55.6589 -16.5894 32.229 -94.4005 5.13739 -13.1025 37.5601 -96.9756 -92.3154 215.171
24854 1 -23.978 -55.94 -20.0084 -50.879 67.9185 23.7919 10.8588 -39.5858 -61.7357 -341.873 165.247
7320 2 -23.8156 -55.3032 -18.4729 -16.867 -80.718 29.354 -15.8643 3.58187 -16.5438 -97.0311 103.823
27543 1 -21.2397 -57.2041 -20.2736 -25.7374 110.21 -40.2876 -12.5023 86.0934 -72.9126 -352.686 243.568
2190 2 -19.7001 -58.1452 -16.5669 5.01164 -55.3514 28.9907 -47.914 52.0148 -95.265 -86.8654 218.852
2780 2 -22.5546 -56.2968 -20.5556 -3.24742 -32.1382 -4.79366 -4.25201 -39.3303 32.5502 -95.0675 93.0903
202 2 -24.6224 -56.8602 -15.1682 36.512 -94.5641 36.5239 -9.10488 -58.4473 -96.3846 -91.4418 235.689
4807 2 -23.1799 -54.9407 -16.0288 14.6529 -99.7751 39.6322 -55.6565 -46.8028 -84.9707 -93.0334 232.595
27848 2 -24.9214 -57.2329 -20.0038 18.2209 -16.9671 -39.685 5.34803 12.1335 37.7816 -93.9108 85.8109
27934 2 -21.8197 -58.6986 -20.6133 -21.2316 -12.9649 -14.2607 -4.45022 -38.9268 40.2201 -89.5004 97.5581
27619 2 -24.7111 -54.6982 -20.8326 50.9582 -63.608 -10.8022 -15.6383 21.599 -7.57249 -97.4367 110.315
27468 2 -23.6301 70.8089 -20.4808 -42.2172 30.1034 -23.9077 -8.41635 -41.8434 -41.7412 -90.4232 122.203
27526 2 -19.7689 -59.9247 -14.7355 44.2777 -19.8847 -74.4364 -20.4775 20.7952 -66.5982 -91.4885 162.647
24995 2 -22.0594 -60.6401 -15.877 -10.9885 -22.2945 26.5187 0.765852 54.1386 -15.7335 -86.0663 107.22
29884 1 -18.7974 -58.7817 -15.338 -63.0115 64.3483 107.35 97.736 -46.2008 186.081 -353.615 403.095
5219 2 -17.4333 -59.4472 -15.8387 -6.95268 -12.5731 -26.1561 -62.6127 -7.81155 -38.8716 -88.0986 129.497
7877 2 -15.1827 -55.8675 -15.6153 77.3584 -87.4493 -49.0753 26.4868 -8.43707 -136.417 -89.4366 283.648
27639 1 -16.011 -59.8104 -15.1067 27.5816 12.3015 89.8988 78.8807 36.1311 51.8179 -352.733 188.964
5105 2 -13.3398 -55.0216 -17.2927 -4.13575 -112.528 41.0074 -20.0595 32.9529 -61.4901 -91.7177 185.709
5000 2 -15.2509 -58.4287 -14.9593 26.8952 -10.9923 -90.0041 12.6461 -16.4341 -81.5346 -90.1611 178.621
27754 2 -18.363 -55.0025 -14.7756 16.5223 -44.5245 -10.4311 -35.5309 11.2846 -76.9356 -89.4103 157.272
27458 1 -14.4998 -54.5682 -16.3063 -114.845 218.17 25.5253 -27.9596 -50.2676 191.788 -353.802 451.808
19 2 -12.6164 -55.5305 -19.794 -24.5228 -95.6139 94.5131 -61.9199 29.6051 10.8331 -90.2976 205.352
7541 2 -11.0412 -55.8879 -17.6276 -22.7987 -66.275 73.1878 -70.4927 18.1012 -21.8682 -89.5021 180.56
10070 1 -10.7947 -57.2676 -16.7271 50.2517 137.856 -135.145 119.392 -12.5022 11.1945 -358.856 319.212
9869 2 -9.19157 -58.0929 -19.9693 -39.3704 -40.8419 61.5071 -40.0204 55.0584 -37.8064 -92.6418 168.861
5096 2 -9.34099 -57.0281 -15.966 15.542 -75.7272 71.2337 -41.7143 38.1703 4.38212 -89.5992 161.751
24766 2 -10.5923 -58.4716 -17.7863 -31.8172 -40.2164 66.0846 -54.6709 -8.94512 17.0311 -85.5811 143.369
14775 1 -9.64965 -59.1404 -18.8312 59.3156 64.8555 -73.3566 68.3936 -77.9339 10.4289 -356.049 225.717
9859 2 -8.30086 -59.5226 -18.0146 -38.9729 -33.7968 37.5827 -54.1464 58.1589 -20.982 -91.4857 160.483
5201 2 -11.9371 -57.5025 -15.5755 -0.620956 -59.4361 1.15471 0.96319 10.2215 -67.9418 -88.7555 133.159
10081 1 -8.1761 -56.3026 -15.1351 -73.7585 107.776 -92.5569 25.5862 -105.583 29.6672 -349.592 273.438
118 2 -8.27967 -55.6529 -20.3776 -54.2735 1.9225 39.7077 -17.8873 47.3809 3.58614 -92.7345 120.176
9889 1 -12.1415 -54.9687 -18.3909 59.4038 168.142 -165.064 87.2274 -61.7495 30.6986 -353.002 351.725
10162 2 -10.278 -60.4402 -19.523 1.85161 -73.5996 7.29156 22.5399 65.7902 -38.9269 -89.2939 158.707
10110 2 -7.23202 -55.6216 -16.254 -39.4995 -27.293 86.0795 -9.14192 56.0352 -4.84986 -91.3474 155.33
24880 1 -6.73222 -59.7015 -18.1192 126.965 7.90401 -70.0729 78.0231 -201.324 99.0933 -345.007 445.932
4986 2 -6.37473 -59.7153 -19.7709 -84.6562 -5.73892 30.5983 -43.1219 85.9369 -58.3993 -96.3286 219.958
2710 2 -5.27184 -55.8426 -17.8615 -83.1413 4.66589 85.6781 -25.7191 94.3224 -4.92388 -89.2295 223.906
7673 2 -5.88789 -58.3948 -17.7517 -62.6933 -27.1191 51.423 -33.34 113.524 3.0139 -93.7146 228.59
12650 1 -4.87826 -57.285 -18.4391 110.422 41.1844 -112.815 38.5677 -231.161 40.3237 -352.603 456.967
29802 2 -4.99023 -57.5358 -20.0037 -55.9476 -26.3232 48.9656 -4.32317 101.43 -68.1954 -91.2193 231.621
12590 1 -2.47676 -58.2702 -16.8717 17.5409 -35.3797 -17.8167 17.1298 -100.971 89.483 -344.573 240.139
15069 2 -3.38065 -57.5369 -17.9708 1.91736 -22.5823 34.5683 -8.18792 88.9987 -40.6234 -90.4067 177.145
10172 2 -3.52856 -58.8093 -15.7838 -29.9512 39.3588 16.373 -46.7838 59.9336 -24.5677 -97.7543 151.301
15093 2 -1.59709 -57.1323 -16.1271 -32.043 51.6084 -32.883 19.9233 0.851517 -22.9734 -94.8563 99.2212
7582 2 -1.67167 -59.4717 -17.5929 -30.5959 2.71177 41.633 6.42976 32.7991 -48.7135 -95.915 119.963
7562 1 -5.70364 -54.9913 -16.62 143.438 -3.21733 -144.767 74.196 -134.819 16.8823 -352.059 366.335
12672 2 -4.93509 -55.303 -15.237 -32.5981 -7.72668 13.916 -35.7753 40.7363 -9.94261 -95.6987 103.633
10072 1 -5.73451 -58.6639 -20.9271 153.212 59.0787 -143.986 87.3455 -183.854 117.496 -346.913 484.688
14983 2 -1.43543 -55.3261 34.7012 66.6386 -73.2953 -3.8108 3.30717 53.2214 -64.1317 -84.3998 188.561
2690 1 -0.64209 -56.1587 -15.254 79.459 -174.021 56.0752 -71.6139 28.4848 61.9329 -346.46 296.982
12312 2 0.361435 -55.5828 -19.043 -61.7478 -10.5121 43.3094 39.372 -47.2056 -25.4212 -90.4511 146.812
10100 2 0.907274 -59.7582 -17.678 -59.0948 8.10867 49.1691 69.0173 -49.8416 -90.3303 -95.332 234.911
17668 1 2.24965 -59.458 -16.8753 82.0006 -32.3878 -108.39 -111.224 101.251 173.192 -348.542 430.592
15176 2 3.11207 -58.5453 -17.8565 -45.8455 -0.595142 67.7528 65.2617 -76.5759 -97.469 -90.7574 262.071
22477 1 3.51203 -58.0648 -19.3322 82.7051 44.0298 -86.8948 -105.903 143.723 158.293 -347.721 441.004
19794 2 1.93463 -58.8483 -15.3338 -45.0258 33.907 61.2765 62.5476 22.8783 -44.1772 -94.9821 168.231
17686 2 0.349468 -55.5075 -16.3806 -61.3523 62.9266 -7.3784 65.315 -39.6468 -41.5776 -92.5526 185.339
17477 2 4.16801 -56.5984 -19.0904 -50.1653 -15.729 44.489 41.9581 -40.7157 -15.2947 -94.6151 133.575
22458 2 4.29742 -59.2945 -19.9843 -47.0094 -32.8174 42.1848 35.6093 -68.3641 -94.0336 -92.697 226.369
17837 2 2.27272 -58.0375 -20.4078 -44.5177 -40.0445 34.2268 61.4013 -61.6345 -75.6231 -93.9504 213.85
7215 1 -0.0360297 -55.983 -20.5547 -5.16528 105.27 -35.9108 -27.6758 18.3354 98.4159 -358.174 221.134
10387 2 4.41762 -54.6986 -17.1847 -33.8966 -12.6045 90.9946 33.7012 -21.4975 13.513 -92.2982 136.87
15074 1 -0.474486 -60.547 -17.8577 125.711 -53.4158 -147.628 -85.9986 -0.208437 118.012 -340.634 349.007
7681 1 0.578357 -54.653 -17.7316 119.925 -46.3304 -71.3993 -89.0992 85.6425 32.3442 -351.293 285.299
14859 1 5.00879 -60.6151 -20.6163 128.801 79.1646 -149.242 -60.9737 127.292 192.411 -355.779 486.622
15061 1 5.12417 -55.4067 -18.4617 42.8071 32.3132 -142.207 -57.0601 38.6522 -46.4062 -347.901 230.454
19999 2 7.70994 -57.8917 -19.5147 -29.1079 -36.8266 66.194 2.42615 39.5278 -23.5897 -91.1909 127.484
113 2 9.16055 -56.4469 -17.8652 -62.6677 -27.1265 85.5356 -8.50548 42.7713 -39.0514 -91.1819 168.049
20091 1 8.00043 -56.4524 -18.9224 52.2003 85.5468 -157.951 -42.4557 -109.927 19.7535 -350.773 308.404
17866 2 6.6055 -56.0078 -18.3267 -8.4109 -52.7311 76.5553 23.6558 38.075 -0.781725 -92.0323 137.764
16907 2 9.97851 -55.7461 -15.3827 -69.4616 6.53922 28.743 3.91633 5.35683 -55.3454 -94.3227 131.446
16943 2 8.26888 -60.0369 -16.2401 -18.8487 -19.2365 27.4566 58.6668 1.50842 -26.4863 -89.9674 120.827
22287 1 10.3928 -56.1644 -16.8922 113.215 -8.69382 -90.6669 39.0187 -5.09709 96.923 -351.007 253.776
22674 2 8.51438 -55.5982 -20.2006 -10.0121 -49.2266 48.3502 38.5743 16.0302 10.2017 -94.2564 113.047
22377 2 6.49332 -60.0077 -20.741 -51.7423 -64.5342 70.0124 12.5642 -40.8623 -60.7157 -91.4884 181.899
9623 2 7.67089 -54.9098 -14.942 1.85043 -9.94214 21.1531 -21.3981 -27.2866 -81.6077 -92.7718 155.968
14992 1 8.239 -59.271 -14.7835 0.718044 36.7231 -18.0536 -84.9137 91.1363 33.7322 -349.739 228.663
17261 2 11.1255 -54.9126 -17.6107 -26.3169 -19.4422 48.0226 5.0373 -15.9283 -38.5986 -90.9181 101.83
12406 2 11.5221 -60.1281 -17.3599 4.60039 -90.3168 56.641 2.35911 -37.0669 -15.4277 -93.3801 146.662
22497 2 11.3357 -57.4972 -16.8277 -17.5753 -2.49552 27.9783 -46.2981 -21.0644 -39.8615 -91.5754 118.929
19909 1 12.1903 -58.8609 -16.6407 5.61265 109.415 -80.7273 42.5593 79.7054 21.1231 -346.096 230.268
14970 2 13.6836 -58.5917 -17.2075 -27.9835 -82.2376 55.7895 -5.28711 -45.2751 -18.56 -93.9444 147.558
10179 1 15.2778 -58.3891 -17.1226 64.4609 123.381 -140.089 -80.8434 74.7793 67.5871 -350.536 327.798
17474 1 15.6845 -56.5327 -19.353 39.8415 8.62688 1.43123 -75.1946 99.0839 106.235 -355.374 285.524
22188 2 15.6845 -57.0667 -17.8477 -30.5232 -27.9928 58.2051 43.9753 -44.2074 -63.5028 -88.2401 177.248
19865 2 15.5112 -58.7615 -15.5764 5.78316 -75.4191 14.8634 40.5038 2.14515 14.4819 -93.6313 113.922
17288 2 16.3547 -59.4233 -17.8654 -8.28348 -78.9738 62.0723 37.0509 -40.6738 -34.0485 -92.0882 165.77
15204 2 14.6716 -57.4396 -20.174 -23.5945 -32.1594 -0.212649 36.3333 -24.1977 -33.0361 -90.786 99.0524
17496 2 15.1598 -55.0498 -19.2031 -24.4701 10.8646 -11.1142 8.00315 -50.2855 -23.8079 -88.7623 102.144
15155 2 12.3597 -59.217 -15.0423 -8.39714 -68.7467 -4.94224 -10.2637 -61.3646 -11.5722 -96.8963 126.004
19699 2 12.5179 -58.9051 -20.7502 6.59307 -81.9135 47.8956 4.133 23.5535 -67.3954 -90.3587 168.928
12471 1 16.2019 -60.8205 -18.6678 35.1127 183.676 -77.0635 -18.1379 100.533 73.0094 -349.666 314.037
22253 2 16.6674 -60.8144 -20.208 -21.8331 -74.609 12.5735 10.5645 -54.0106 -29.4795 -90.5055 132.206
17577 2 17.0867 -56.4708 -20.1148 16.3897 -32.4911 -9.38231 35.9356 -37.6024 -45.2698 -91.6103 126.719
12874 2 19.8644 -57.9893 -16.8428 5.24277 -87.8521 75.6622 77.7414 8.34879 -20.5426 -87.8213 199.468
27469 1 20.2803 -57.4237 -18.2972 69.2105 154.028 -160.356 -102.253 -84.3608 30.5253 -356.136 367.258
22650 2 21.6793 -56.5838 -18.4653 -31.6753 -95.1676 87.5233 20.5159 58.361 -1.57713 -90.1502 193.122
27450 2 20.1963 -58.6567 -19.3214 -28.6603 -49.4431 23.7824 32.9555 5.23843 -9.88316 -88.5627 88.9135
19685 2 19.2708 -56.2525 -18.8299 -8.93266 -73.9885 56.4453 37.5448 39.2828 -24.8676 -90.519 153.21
25072 1 19.5764 -58.2005 -15.2404 -77.6098 145.245 -22.2213 -162.201 55.5024 23.7933 -357.117 360.909
27565 1 22.1229 -55.0737 -18.7448 67.7452 200.814 -204.838 -18.8607 -112.636 -6.05822 -353.649 409.292
24868 1 18.6446 -55.9476 -20.2554 -3.35378 115.015 -17.4821 -34.1921 -5.5112 74.3086 -348.209 189.86
25141 1 20.1781 -59.8448 -20.3749 18.3466 30.0564 72.7742 -3.72558 65.7209 42.2828 -360.482 144.309
19870 2 22.1533 -55.8797 -15.4783 6.30592 -83.1977 9.02684 16.2119 33.8265 -16.1237 -94.7899 115.165
27203 2 19.1042 -59.744 -15.0362 28.0548 -51.022 -5.39521 62.4418 -7.28982 -4.14512 -88.288 128.976
27107 2 22.7863 -58.5542 -16.0648 27.8113 -63.6268 -6.86078 12.0762 30.1579 14.9075 -88.7726 101.121
22550 1 22.3754 -57.4539 -15.0327 -90.5365 138.795 39.4538 -69.1275 -53.7845 14.4071 -349.269 251.628
24955 2 21.9685 -54.7478 -20.3393 -10.3412 -93.8969 69.4057 4.69663 16.6219 -6.47152 -90.9042 145
22551 1 22.6032 -54.3804 -14.9753 -31.1422 134.985 -44.6118 35.8474 -42.7953 29.392 -343.946 204.838
26983 2 18.353 -57.2616 -14.8683 29.0136 -56.9695 -1.21695 64.148 -12.1512 10.5482 -88.7454 137.22
27352 1 23.8091 -59.6681 -16.6662 -2.09764 129.372 -31.6789 -0.0512978 -14.4641 -93.7971 -366.931 221.517
25102 2 25.9636 -55.2916 -17.3312 15.9037 -71.8009 56.3891 0.133974 0.627038 -10.8698 -85.7733 115.055
29773 1 26.6039 -56.6154 -16.727 -59.3277 208.437 -110.901 25.1918 -12.1244 -31.2377 -362.041 305.679
27851 2 24.7265 -59.091 -17.8178 -33.4801 -96.7844 54.5997 -19.5545 -19.5321 65.1859 -83.1519 179.946
27834 2 25.6673 -57.0333 -15.4778 27.2048 -104.262 -2.77947 -25.2833 39.4018 4.76458 -94.0772 144.513
5056 1 26.1137 -58.9771 -18.6548 91.6049 193.839 -138.646 67.1151 49.2794 -86.5624 -373.429 360.95
22677 2 25.7786 -58.2006 -19.9814 -28.2831 -105.814 75.1278 -29.559 -24.2269 -4.29326 -82.317 170.762
27372 2 28.1159 -56.2429 -16.2316 87.9708 -113.435 26.1731 -13.2256 -28.1834 -14.373 -86.1742 188.319
7580 2 26.8599 -57.9183 -17.6172 4.38782 -123.597 87.28 -10.5215 -16.6639 59.3918 -81.2039 213.559
22296 2 24.6847 -59.9855 -15.3243 0.462874 -53.273 -26.5264 2.45171 26.8143 21.8529 -85.5817 75.9827
24958 2 26.6654 -60.4956 -18.9794 -31.0279 -41.7895 -2.40542 -58.3607 -16.3679 42.5793 -79.0408 133.055
22181 2 23.631 -54.6682 -18.3922 -22.6958 -112.695 88.6483 19.0562 48.2725 -7.64917 -87.9905 196.911
27052 1 29.286 -56.3445 -15.1778 -208.827 192.815 52.9486 62.5661 102.361 35.576 -353.497 414.338
152 2 31.3617 -57.7322 -18.2666 -52.0446 -112.642 114.501 -5.62733 -53.6646 -3.41685 -84.023 224.213
27561 2 30.6306 -56.7661 -15.9181 54.6014 -101.387 37.032 -49.7621 -73.7318 -8.01515 -87.522 214.082
25239 1 31.481 -56.9444 -19.6882 61.0416 141.867 -67.1314 27.6892 34.6517 7.33833 -358.867 198.455
24663 1 31.7298 -57.8232 -16.7267 83.1264 180.988 -201.849 57.1706 105.647 28.8866 -363.112 405.548
19866 2 31.4347 -59.1971 -15.9657 -30.0141 -40.2855 32.8031 -36.5835 -30.2246 12.5057 -85.7421 109.186
25126 2 33.2627 -57.3159 -16.4263 -19.8647 -75.5302 98.3231 -1.18623 -44.4971 -34.7837 -88.546 182.263
7757 2 31.7799 -55.3732 -19.4831 -32.4399 -42.9681 35.993 -18.7528 -21.9098 -12.7228 -89.01 92.169
20065 1 34.0707 -56.6298 -15.1562 -43.2021 118.467 -54.5883 27.9401 112.432 123.87 -350.8 338.236
27299 2 33.8232 -55.0645 -15.0953 15.2116 -44.6437 1.50909 -24.5418 -95.2367 -51.6937 -92.3635 199.96
5004 2 32.8151 -57.4045 -20.3528 -21.9321 -59.5507 -32.4463 -8.68282 -0.847833 6.78938 -93.0591 38.6885
20279 2 33.8354 -59.6418 -20.7325 -10.6848 17.7436 -67.2068 -16.6589 -19.201 -25.8102 -91.7449 97.7079
22588 1 31.6603 -60.3922 -14.9557 16.7324 32.6663 43.8516 51.152 28.2787 -66.9063 -359.109 155.677
22178 1 34.2191 -58.0944 -20.7599 -23.8386 33.417 109.844 29.9152 20.8462 -22.8452 -347.065 138.019
4865 2 30.4276 -57.3851 -20.8018 34.9852 -84.3256 -32.451 -5.23299 32.7756 -12.0352 -86.5607 120.317
27640 1 -23.4781 -54.1809 -17.3682 1.59476 146.461 -61.576 59.1328 65.1916 71.5734 -341.808 269.697
26985 2 -22.3362 -53.2249 -17.9577 18.6467 -58.2915 3.71241 8.20615 -10.6208 -9.45375 -97.3019 76.1712
307 2 -22.8295 -50.5569 -18.6204 38.8316 -36.827 -11.6391 20.3943 -17.8543 25.0932 -95.1997 92.445
5376 2 -23.8857 -52.5349 -19.8015 61.3297 -101.883 10.7217 -13.5897 -5.90918 5.01894 -98.1181 147.221
2594 1 -22.5508 -52.0356 -19.0687 -110.151 143.28 -5.49291 -55.196 69.7798 -53.4652 -339.76 284.57
27641 2 -21.3196 -51.7953 -20.1364 67.5141 -109.94 5.87988 27.26 -51.8388 42.5148 -97.1459 200.163
27626 1 -22.559 -49.0306 -18.2446 -119.412 71.6382 24.2453 -8.86071 21.5054 42.3855 -346.79 191.584
27820 1 -21.9081 -49.1886 -15.3411 -122.356 227.228 -63.6015 -13.1839 27.4903 -11.4726 -345.696 329.097
25063 2 -20.8809 -50.4353 -15.536 17.239 -101.608 29.2371 5.84576 -9.96142 19.7193 -94.785 131.382
25044 2 -19.8812 -53.0199 -15.6468 -7.83436 -1.32804 13.6678 -17.7106 2.27587 -13.9855 -90.1944 43.6817
4988 2 -22.7852 -48.9401 -16.6515 65.8225 -97.026 25.4535 10.293 -24.1119 -5.57428 -93.9471 154.047
27595 2 -24.4978 -51.1209 -15.6505 42.3198 -96.0526 24.4971 7.6123 -59.4069 21.6947 -93.4911 170.797
2926 2 -20.9448 -48.7703 -18.4406 15.388 -31.0773 -6.66426 1.51345 -25.1544 -24.5188 -95.585 73.0019
2758 2 -24.6889 -53.1209 -17.0846 8.50361 -77.5947 49.5015 -36.5946 -66.2601 -0.238508 -95.3203 172.663
4994 1 -19.8526 -51.5856 -15.0314 52.5887 95.3857 -99.5872 34.5487 1.23407 -21.5447 -352.489 190.996
10357 1 -19.2886 -48.7767 -18.4978 -2.77877 35.7481 -12.5575 21.4476 53.5923 19.4076 -346.038 114.381
4983 1 -19.2924 -54.4833 -16.0349 -48.2094 85.4573 7.60724 31.4464 -29.287 164.698 -353.553 316.92
192 2 -18.1967 -54.1618 -17.2048 53.6162 -101.607 29.9218 -3.2457 -20.5395 -91.3883 -90.5844 217.555
5180 2 -16.6472 -54.2489 -19.5064 50.1992 -130.851 39.8292 -28.9543 -6.87325 -30.5133 -92.8025 190.943
5196 2 -18.7963 -52.4083 -20.1658 61.147 -130.9 4.60761 -5.25062 -23.3455 13.0276 -97.5745 177.334
2700 2 -18.5813 -49.9314 -19.3295 15.6928 -43.0161 17.6888 -22.1272 -50.3044 32.6477 -93.9515 125.801
5303 2 -18.6107 -48.9422 -16.9736 29.4695 -78.1731 14.5255 1.15233 -2.94616 12.2897 -93.5738 103.367
2407 2 -15.662 -53.8106 -17.1145 91.6791 -121.689 -2.81469 -14.1935 27.1194 -75.5233 -89.7688 232.842
5177 2 -17.2114 -52.0507 -18.2655 61.8194 -94.8686 25.3667 -32.138 -12.9118 0.923154 -92.6403 154.174
5091 1 -16.9214 -53.616 -18.0113 -138.543 227.074 -80.7044 52.1258 10.0108 146.612 -352.346 434.525
29858 1 -17.7549 -49.4644 -15.7294 -186.162 231.075 -44.8505 -46.294 32.1213 -39.1144 -353.663 386.277
10170 2 -16.1524 -49.3416 -16.0893 153.68 -116.384 -33.052 22.3397 -8.81271 21.9932 -88.5057 246.079
89 2 -14.3574 -49.0821 -18.1056 73.9506 -84.3999 26.4267 39.194 4.82406 27.1629 -91.4323 163.401
7789 1 -17.6902 -51.2627 -19.6172 -87.739 214.159 -44.8089 35.9195 86.9221 -49.4409 -344.56 337.483
27553 1 -14.7689 -48.704 -16.5435 -243.96 211.473 80.2313 -31.003 4.17903 -18.2706 -352.385 410.863
5013 2 -13.5308 -49.041 -15.5791 37.2254 -88.4301 -3.05453 6.76437 22.7186 -25.7719 -93.6113 126.604
5280 2 -18.3968 -50.8578 -15.1902 13.449 -78.2676 47.3083 -9.68469 -23.0104 11.2163 -90.1225 122.111
7509 2 -13.7438 -53.6501 -15.2311 19.1478 -55.8367 -28.2779 19.5108 35.6862 -50.7958 -89.9518 130.456
7603 2 -16.4263 -51.1649 -20.6333 64.0986 -109.604 42.3067 15.6312 -48.2031 -16.6092 -94.6618 188.131
12959 2 -12.9344 -49.2017 -20.5487 -23.3143 -77.3672 104.222 54.7336 63.6975 7.29633 -96.2159 217.715
2678 1 -13.0037 -49.2007 -18.9526 25.3068 147.29 -144.87 -88.8072 -29.0943 -25.5578 -343.724 304.562
10273 1 -7.79679 -54.1607 -20.4866 113.093 -3.0656 -65.0094 -6.84108 -54.1217 -41.9919 -350.583 196.833
10188 2 -12.242 -50.6237 -18.4906 -53.1058 -23.8152 44.0532 20.9122 21.4543 -25.3807 -95.3336 109.897
5301 2 -11.7087 -53.3576 -18.4762 -21.1621 -35.4931 41.8305 7.2029 25.2013 -26.8932 -92.1464 96.4722
12665 2 -9.91369 -51.6235 -17.9149 15.0296 -30.4724 25.3831 -10.4113 43.1684 -37.0647 -92.6311 112.631
5092 1 -11.502 -51.8555 -17.7846 53.0159 9.26974 -50.8347 -38.1934 -50.9264 82.6084 -347.887 201.952
7888 1 -8.59224 -51.5625 -18.7522 -0.566464 72.1559 -68.9753 74.0283 -84.2806 30.4434 -350.794 235.529
2771 2 -11.9931 -52.0512 -16.2749 -63.5167 -1.52117 22.4205 7.05998 58.4705 -24.9052 -93.0732 134.787
12887 2 -8.77171 -50.2318 -19.5852 10.7001 -39.2375 22.8087 -37.19 22.3026 -24.8136 -93.6673 103.604
10557 2 -8.38482 -52.8941 -19.6896 -25.7298 -34.1749 32.9496 -26.3171 16.3985 17.816 -91.2829 88.5826
4995 1 -9.14114 -48.7105 -20.1336 -23.011 126.518 -113.429 14.1456 -15.2494 34.3042 -343.318 221.094
15201 2 -7.59224 -52.1008 -15.1163 -25.7075 19.3005 3.63997 -23.9664 55.1739 -37.541 -94.7508 129.034
7583 2 -7.31962 -51.5607 -17.7395 -22.5653 -45.3655 63.1761 -13.2172 75.2656 -11.4209 -91.5563 166.543
15084 2 -8.35618 -48.4047 -15.0413 34.5025 -19.7138 -18.5623 -13.2878 54.4093 -55.2324 -98.4645 146.427
10083 1 -12.3887 -52.8307 -14.9412 81.6283 4.92868 -31.364 -18.5872 -136.774 36.8865 -351.794 266.876
5567 2 -7.77245 -48.2714 34.9246 44.5883 -64.8989 65.0822 2.45602 -7.62766 -33.1323 -93.5866 134.674
2572 1 -6.58743 -52.0592 -16.4094 95.2051 14.6466 -94.575 16.0872 -135.163 59.7934 -348.608 305.822
5172 2 -6.12731 -54.021 -20.3187 -89.6871 -9.27957 38.9159 13.0224 21.8217 -8.21296 -91.0308 121.668
14969 2 -5.89122 -53.4391 -16.7474 -67.5954 4.07876 64.6188 -16.8433 69.1316 -38.6342 -91.3929 181.129
5374 2 -5.61484 -50.941 -15.9005 -14.7235 -9.19599 -16.8135 10.3964 41.0495 -28.9039 -94.7775 89.063
10068 2 -3.60788 -49.6052 -18.778 48.3462 -110.659 79.1683 28.8168 34.8073 -31.2338 -90.5928 200.465
17845 1 -4.96223 -49.5532 -15.4739 -92.1041 34.4834 44.9114 4.45788 -10.6252 35.3245 -343.331 146.952
12548 2 -3.54307 -49.5455 -16.1774 64.2944 -59.3271 1.43051 9.44723 -4.80243 -22.6277 -94.0756 115.481
17690 1 -2.70288 -49.7975 -17.4975 -101.929 186.14 -99.4451 -32.3009 -3.59001 61.0933 -349.359 310.87
7974 2 -2.02764 -51.2484 -17.7312 35.9128 -61.6637 39.1119 5.27337 14.0521 -54.5552 -91.1936 139.457
15175 2 -4.72172 -51.703 -19.8736 2.82957 -45.7928 36.8218 53.2682 35.1611 -2.03393 -88.4976 131.933
7779 1 -4.17882 -50.2336 -20.1538 -89.2407 151.131 -95.7365 -88.2314 -116.145 48.2156 -355.068 360.804
7686 2 -1.42347 -48.8721 -17.5434 39.6258 -62.4998 50.756 23.2463 -11.131 -34.7791 -95.3086 131.574
7780 1 -4.98014 -52.9997 -20.785 32.0957 57.9207 -29.1598 -77.6619 -73.4017 -18.838 -356.349 203.281
7788 2 -5.33809 -49.3704 -20.8118 27.1662 -64.8966 27.6782 28.8732 39.3273 -49.8254 -91.4507 152.025
15157 1 -0.588797 -51.8071 -17.5621 28.528 30.459 -72.5826 3.02907 16.5979 113.003 -348.893 222.678
17555 2 2.01677 -53.9714 -17.4549 -43.3123 3.05058 43.0837 52.8612 -34.7672 6.48653 -94.0128 133.205
7882 2 -0.519453 -53.4147 -17.6772 -40.7365 25.9264 27.4011 15.6626 -18.0283 -32.3257 -90.5062 96.9035
20002 2 -0.195165 -51.2533 -16.1152 2.20069 -19.6292 32.8466 19.8582 -1.40476 -48.0067 -96.2126 100.934
10176 2 0.398565 -51.3817 -18.7658 -9.50409 -4.38824 43.2161 12.9947 -5.59337 -57.5248 -94.4034 114.296
17571 1 3.31167 -53.6568 -16.6193 85.4268 12.9986 -162.605 -95.0364 27.1367 8.27368 -345.004 279.842
24873 2 3.96917 -52.1616 -16.7812 -52.7216 -0.558817 75.0192 25.3212 -21.0246 -24.919 -98.3776 132.242
10062 2 3.85323 -50.3345 -18.6453 -63.879 -0.183328 61.9145 -22.2987 32.9135 -30.787 -101.66 139.477
10286 1 0.7347 -50.5888 -20.0841 -16.9214 43.3972 -65.2479 -55.9333 -21.8324 82.8009 -342.173 200.68
17678 1 3.85952 -50.2727 -20.2467 145.383 -20.2017 -155.109 68.3009 -37.7439 57.2677 -334.169 309.943
22663 2 0.493143 -49.0287 -19.8659 27.088 -67.385 46.3499 25.0127 10.7691 -35.3966 -100.296 130.765
17659 2 3.04478 -53.935 -15.064 -61.9172 6.54807 72.0162 43.7835 21.8589 -36.7087 -95.5579 157.108
13067 2 2.68486 -49.2552 -15.2243 -33.7275 -20.9216 97.8363 21.7558 -1.86193 -47.7826 -102.546 155.139
15355 2 2.30129 -50.597 -20.6265 -39.0377 12.9444 47.0364 -0.355999 9.74441 -25.0669 -98.8134 88.3565
15159 1 4.69843 -50.8595 -17.3882 74.9591 -8.08492 -94.0263 11.6121 -12.3886 50.9103 -333.736 173.377
12646 2 4.67428 -51.64 -20.6347 -69.2939 59.4087 64.3563 -50.4605 -1.75732 7.9749 -95.7136 158.318
14979 1 4.82623 -53.2037 -20.7006 110.608 -76.3101 -95.1999 25.1967 16.407 -87.511 -342.942 253.993
17855 2 3.29512 -53.7366 -20.8866 -69.5739 29.4306 42.3546 5.97785 -17.2131 32.2456 -95.4979 123.951
17484 2 5.2826 -49.6334 -16.5013 -13.0823 -6.57451 31.2303 2.28686 -12.2057 -20.7195 -101.522 58.8906
17589 2 5.25167 -54.099 -19.4218 -36.5017 -7.63042 50.7232 6.87235 -9.16518 54.7985 -96.3641 123.797
23009 2 6.13601 -51.2554 -17.9833 17.2831 -15.4516 6.10163 -22.8981 10.1124 6.24609 -98.0848 53.1729
12661 1 7.68126 -51.6755 -17.8424 -61.3814 45.7851 0.196802 30.0905 3.93754 -12.448 -342.4 109.111
17681 2 7.68787 -52.9963 -16.8678 8.02794 -31.6017 21.9412 -20.1995 2.29665 -25.0827 -95.6557 73.7752
15442 2 8.45626 -51.8607 -19.2576 6.579 -42.9299 47.0742 10.7413 -25.4706 32.7958 -93.9933 107.773
10184 2 8.43651 -50.5144 -17.1153 35.1665 -7.22517 -43.486 12.4194 7.74374 2.53244 -96.2755 72.876
15146 1 9.82787 -52.1362 -20.095 50.3443 104.744 -154.065 -92.4257 79.7118 9.2313 -349.103 317.502
15266 1 8.7825 -48.9473 -16.7371 -111.689 12.0696 59.7202 -75.4508 -21.4274 -17.6272 -341.813 207.056
20161 1 7.81233 -53.3347 -15.2892 -52.555 76.1435 -8.85884 54.9444 40.1771 132.753 -346.481 282.167
17570 1 10.8434 -52.4603 -14.9507 25.1819 14.1588 -32.1972 -133.309 -157.304 56.6629 -347.659 374.112
14901 2 10.9508 -52.5631 -19.018 1.96545 -64.5781 64.7951 37.7319 -23.6425 -6.17495 -92.2439 136.451
17672 2 10.1117 -48.4474 -17.4739 30.1708 -32.6626 -2.05212 47.227 -21.1178 -20.5298 -96.7311 110.703
12572 2 8.9639 -48.6452 -15.0828 51.4937 -27.7421 22.7672 10.1973 25.4485 22.5591 -94.9999 92.7844
22667 2 6.69287 -52.371 -14.5694 36.9322 -43.474 27.8332 -29.4114 -56.5718 -47.8915 -94.5947 157.776
27681 2 11.3792 -52.7979 -16.4612 -13.8218 -31.9839 42.3378 53.1107 22.1703 -9.82631 -92.7364 121.368
17499 1 11.7468 -53.4081 -17.8897 -20.301 106.688 -100.819 -66.8506 52.8106 24.0044 -353.56 237.354
20084 2 13.2931 -53.487 -18.3509 4.81045 -82.0194 35.3119 1.80773 -53.9118 -2.58139 -88.4734 140.952
20129 2 14.5609 -50.4763 -17.6505 0.850726 -46.3422 60.0598 22.1817 -31.9447 7.51934 -94.4347 115.04
25070 1 15.9469 -51.2154 -17.6958 50.4333 84.5493 -133.981 -25.4126 -7.8039 -39.9679 -348.854 219.946
22378 2 15.7331 -52.8006 -17.8319 -29.2331 -31.842 70.5175 16.7391 -7.78643 23.732 -88.6006 113.707
19888 1 14.7738 -53.5765 -18.93 -9.78366 35.4028 -33.7898 -51.6146 81.7198 -12.3084 -356.145 179.399
12663 1 16.324 -49.5729 -20.2282 38.8866 68.4395 -76.0225 47.8228 -56.0865 -115.197 -343.055 271.26
20169 2 13.2655 -49.5574 -15.6028 20.8236 -79.5568 91.428 25.7271 -3.70078 -56.1671 -95.8312 183.411
7876 1 13.893 -49.0788 -17.0693 -91.8146 142.496 -137.841 -16.9792 68.3631 81.8425 -341.361 320.6
22770 2 16.5379 -50.6004 -19.004 -31.864 -58.7754 30.3977 -19.8293 14.0736 58.9729 -95.781 135.954
276 2 14.9052 -52.5885 -20.2119 -23.9644 -45.0459 32.8768 0.672611 -11.9156 15.9227 -92.9828 77.856
20334 2 15.1115 -48.5211 -19.8905 -28.5673 -36.6068 41.0483 -30.2995 39.8771 20.9111 -99.0027 119.613
18060 2 12.6712 -48.3115 -17.8842 43.1083 -47.13 42.904 -3.99166 -26.4322 -43.2292 -97.5408 125.995
17372 2 11.1 -50.8824 -14.8471 -7.04705 -7.17997 13.485 38.3275 80.3707 -24.0357 -94.3839 161.068
27456 2 16.9472 -53.2827 -14.7288 4.22067 -22.5655 67.7726 20.9295 -14.1294 -18.9272 -88.2276 97.1927
17276 2 16.9454 -51.163 -16.4591 1.78582 -64.1231 97.6397 -8.1308 30.4171 -14.1048 -91.8961 153.037
25337 2 21.2105 -54.1116 -17.8335 -55.931 -72.6356 70.0502 -17.8217 66.0155 7.97993 -91.6706 180.202
22470 2 21.4022 -53.4013 -15.3952 12.2249 -35.6673 37.4055 -55.5908 -4.65315 0.833135 -92.2668 116.068
24977 2 18.9591 -52.9069 -16.4057 10.516 -46.0519 70.7173 -37.6942 -13.3642 13.1853 -88.1925 124.698
4931 2 20.8446 -51.5803 -17.314 -4.66751 -20.5792 52.7317 -32.3149 11.8503 2.59347 -91.1798 89.6404
29897 2 21.2505 -51.1457 -19.7911 -21.6513 -38.576 68.4387 27.5555 3.98479 26.5583 -90.1065 119.871
2800 1 20.8705 -50.4403 -18.4234 -29.6915 91.0274 -104.938 11.3921 -6.67462 -28.886 -351.364 179.847
29775 1 20.5449 -53.0982 -16.7695 29.992 62.6683 -99.5461 103.134 -24.1554 -18.5334 -353.94 238.268
20291 2 19.4478 -49.7626 -18.536 50.119 -71.6816 28.7913 -21.8517 -6.35978 29.6892 -94.1059 129.964
15087 1 17.8608 -52.1729 -15.5066 -17.4791 101.359 -192.192 9.68268 14.2153 27.3325 -355.675 261.798
27749 2 21.8705 -49.3636 -17.8071 73.4051 -105.506 41.5425 10.4413 -5.90235 -22.9164 -93.5172 171.263
19975 2 17.7203 -48.6954 -20.2186 58.8127 -56.3892 24.624 -9.28133 -6.07837 37.2134 -93.6997 122.579
22672 1 18.5813 -48.4758 -18.8759 -144.119 169.514 -10.9325 24.7224 16.8476 -29.4949 -341.839 282.184
27768 2 22.8071 -48.8513 -15.4941 88.8423 -143.186 46.3922 11.3707 -44.2256 -38.4198 -96.4592 237.642
27466 2 23.9076 -54.088 -15.9202 11.7201 -62.7128 0.338839 10.7791 38.891 -37.0673 -94.9462 117.604
22274 1 24.7221 -54.1944 -17.2908 -26.5838 139.065 -83.6418 -61.7372 -40.3939 50.3498 -356.481 253.143
27084 2 25.1675 -52.6474 -17.5322 31.2009 -44.7901 17.5172 64.3381 -4.57292 -43.4895 -88.3781 151.911
25062 2 25.2827 -50.0689 -18.1449 71.6014 -83.8865 26.1761 23.2565 -22.6955 -59.5283 -93.1266 181.592
13 1 25.9001 -51.2389 -17.2454 -90.8096 71.4249 -12.2888 -73.6256 68.4523 162.753 -350.279 359.905
24803 2 27.4576 -51.5634 -17.4077 34.6747 -69.286 24.6587 12.985 -54.6249 -77.5644 -92.3806 193.321
2496 2 25.6814 -50.886 -15.7452 50.2007 -35.6845 -1.34765 13.9798 -39.2052 -74.4673 -95.019 165.65
25142 1 24.7454 -48.7498 -18.9182 -176.751 252.941 -108.008 -37.6003 11.4561 91.8783 -345.413 435.64
473 2 28.5427 -49.1307 -19.8851 7.473 -116.371 86.845 -65.4236 -45.6061 1.51589 -99.694 224.843
2856 2 23.787 -48.7078 -20.1967 71.1503 -130.821 74.9773 31.5421 -7.80836 -36.092 -92.1765 220.58
25058 1 28.9779 -51.7467 -16.9906 -47.1445 148.418 -97.1146 80.1805 109.467 178.087 -350.181 448.213
4993 1 -25.1778 -53.2141 -20.4613 -134.41 210.269 -13.4583 77.8544 -55.0984 21.8741 -339.302 347.089
20050 2 29.4005 -50.2417 -16.3601 14.264 -73.7654 51.6632 -52.8424 -26.9522 -68.7658 -97.0326 192.828
25257 2 29.3958 -52.7856 -15.8259 41.6941 -53.2531 23.0849 -42.4479 -31.3182 -105.677 -91.0215 222.362
266 1 29.4788 -48.6587 -16.1813 -94.1788 183.681 -113.805 106.807 7.00354 68.6535 -334.828 362.705
22640 2 29.847 -51.8782 -18.2961 25.0317 -88.3499 60.2341 -78.4499 -70.8744 -35.3711 -91.1672 235.312
24962 1 34.7611 -51.8589 -16.6288 -66.162 178.207 -117.466 83.1533 106.313 -3.9028 -347.811 359.974
2986 2 34.1157 -50.7926 -17.712 77.2258 -92.373 42.896 -72.6044 0.751985 -2.19549 -93.0181 199.876
25079 2 33.5508 -52.4488 -15.7535 32.6647 -89.8132 53.8448 -44.127 -78.4209 -48.1663 -91.961 222.024
5368 1 33.248 -49.7592 -18.6561 -186.648 179.689 -45.4476 135.861 -10.1137 1.03776 -348.005 397.615
472 1 30.7171 -51.4801 -19.5922 -81.204 168.801 -58.3382 220.397 82.8416 -18.3049 -347.201 473.948
27929 2 31.83 -50.4285 -19.1002 73.37 -136.429 25.5897 -86.2306 -21.8792 1.051 -95.4316 244.991