ITEM: TIMESTEP
1980000
ITEM: NUMBER OF ATOMS
29952
ITEM: BOX BOUNDS pp pp pp
-2.5141811457830563e+01 3.5127105799817414e+01
-1.2456858123389202e+02 1.3455387557589205e+02
-2.0959296319110130e+01 3.4827149464552392e+01
ITEM: ATOMS id type x y z v_StrAtomXX v_StrAtomYY v_StrAtomZZ v_StrAtomXY v_StrAtomXZ v_StrAtomYZ c_PEAtom v_VMS
27173 2 21.2058 -118.781 -15.6352 -194.763 433.965 -286.748 123.596 -0.0540707 106.705 -87.0418 735.92
22357 1 21.5449 -117.437 -15.2244 344.826 -566.617 605.221 -197.815 83.0732 -149.143 -320.1 1157.88
21906 2 22.905 -116.673 -15.3809 -181.749 246.456 -323.903 40.4022 -51.4994 71.3839 -119.232 540.905
19491 1 23.598 -115.242 -15.3871 264.705 -455.441 659.256 -201.636 121.441 -103.552 -278.714 1075.55
24444 2 23.8497 -114.155 -16.5141 -156.476 268.964 -242.742 165.99 -50.7316 15.0346 -124.241 562.316
24110 1 23.8008 -112.553 -16.4404 249.523 -607.908 438.117 -418.892 53.9385 108.322 -287.47 1225.89
29626 2 -23.8413 -110.027 -17.7176 -4.06376 -30.8379 17.2968 12.0807 32.5617 -13.4702 -87.4835 76.8635
17193 2 -23.4808 -109.665 -20.4303 -58.2976 -5.87413 17.9432 62.6771 -41.1565 -44.7599 -84.6122 165.654
27158 1 -24.3809 -109.494 -19.1505 16.3393 41.7521 -125.825 -99.8661 45.4447 41.0587 -358.491 256.207
24566 1 -23.9519 -109.483 -16.2086 -117.21 -26.8609 87.8359 -80.7079 -153.193 109.754 -344.562 397.196
2335 2 -23.2077 -108.03 -16.1739 44.5264 94.3449 -65.5538 80.8907 69.7258 -72.6951 -95.4482 264.863
1911 1 -22.9949 -106.563 -16.6948 -65.6756 -152.018 25.1022 -187.931 -67.147 71.238 -336.875 397.792
29564 2 -24.7179 -108.004 -18.7715 62.6892 30.1948 79.9034 99.481 -12.9104 -17.3423 -92.8569 181.668
7280 2 -23.5866 -110.467 -14.9728 83.5573 -9.07082 -65.955 -3.36306 122.93 -39.6519 -98.4972 259.174
9691 2 -17.0846 -110.656 -15.2229 -103.539 53.4348 -97.8914 33.5678 -53.3549 34.1355 -111.49 197.996
27142 2 -17.9636 -106.859 -20.5735 29.7007 -68.9278 76.1974 48.8884 14.9724 34.1228 -84.0052 166.767
1823 2 -10.17 -112.2 -20.5232 -215.075 372.175 -194.132 22.4229 3.9063 43.1285 -59.0734 583.212
4501 1 -10.4891 -110.833 -20.0481 402.954 -441.004 303.951 -170.885 -43.1195 50.9802 -375.745 859.938
4685 2 -10.196 -110.574 -18.4502 -173.202 186.255 -164.052 86.6043 -14.262 -106.757 -89.0145 428.143
1905 2 -11.9659 -110.109 -20.5367 -154.667 88.9877 -97.7955 173.006 55.1133 -44.0674 -84.9446 391.761
7101 2 -9.43328 -109.317 -15.9036 -111.791 87.7395 -26.5167 89.4512 -56.4398 -48.3758 -104.289 265.802
6532 1 -9.56951 -109.453 -17.4768 306.652 -146.798 112.442 -151.037 22.6021 195.92 -327.603 583.431
7378 2 -8.29238 -108.79 -18.1529 -91.4621 24.1063 -59.6368 31.3953 -8.84194 -76.233 -107.358 176.966
29454 2 -12.3777 -107.742 -19.7028 -3.97752 -56.8944 -23.2057 56.8653 24.0699 -60.5775 -103.795 156.845
4626 2 -10.6611 -108.115 -17.7314 -76.8237 -32.6807 34.7304 91.6256 -25.8002 -71.8028 -111.151 228.294
7179 1 -8.14725 -107.45 -18.9651 34.3895 124.042 9.25631 -196.432 47.2219 111.306 -303.576 412.959
2204 2 -9.67329 -107.239 -19.8503 -60.7778 -84.4167 -11.5042 84.0068 17.3632 -61.918 -118.772 194.239
7190 1 -11.1444 -107.129 -18.901 66.3341 84.8679 2.11667 -55.4043 -21.0736 80.2984 -305.861 188.527
6537 2 -8.22032 -107.015 -15.5853 -48.8784 -30.2715 84.436 118.444 -18.6872 -9.69021 -117.877 243.011
2206 2 -9.5954 -109.583 -20.7735 -153.423 18.2292 -93.8276 53.5826 9.72242 -24.0448 -93.8042 182.805
27161 2 -6.9427 -107.326 -19.9268 64.297 -69.0833 -21.1084 80.1869 -76.772 -47.0142 -108.291 239.365
7276 1 -5.83874 -106.443 -20.711 -174.142 154.46 -38.443 -170.404 143.441 20.6854 -320.627 481.585
17081 2 22.7444 -112.248 -15.2522 -74.3642 289.331 -208.803 156.308 -93.8014 10.9047 -121.76 547.076
1926 2 25.2044 -112.119 -15.7046 -51.182 281.527 -257.454 236.102 -8.69206 -6.74706 -127.101 624.074
24473 2 28.2452 -111.415 -18.5459 16.7287 180.583 -53.3809 123.168 -70.5134 9.8833 -101.097 322.446
14300 2 23.7415 -111.747 -17.8692 -169.576 262.837 -108.924 171.334 40.0857 -91.4743 -112.842 531.434
4688 2 27.6752 -111.024 -15.7855 59.3406 103.392 -212.038 143.397 10.3082 -38.4236 -126.918 392.4
21891 1 26.1786 -111.075 -15.0491 -25.7552 -330.203 344.618 -354.088 -17.9522 -37.5385 -278.094 850.855
24482 1 27.4515 -110.563 -17.5517 -95.5504 -175.594 233.47 -309.259 27.7651 186.431 -295.739 731.096
27137 2 25.876 -110.419 -17.8818 -79.6701 129.151 -82.6164 132.236 43.7045 -114.517 -119.837 376.513
29547 1 24.3753 -110.334 -18.4492 294.771 -359.662 90.0569 -200.344 -112.087 257.729 -308.142 832.824
21708 2 24.4221 -109.627 -19.9216 -182.319 118.455 17.941 84.4812 46.4184 -129.508 -104.933 385.393
14517 2 25.7093 -109.534 -15.0987 -8.20763 126.343 -71.2217 63.0016 -18.2626 22.5517 -127.525 212.102
22157 2 23.5432 -109.153 -17.6951 -90.4038 174.811 -79.2176 -16.3298 37.3727 -112.628 -113.507 332.479
19279 2 28.0134 -109.088 -17.4226 83.2364 -4.02899 -80.6596 119.217 -32.4969 -152.149 -124.79 368.007
24664 1 24.6249 -108.083 -20.5072 213.224 -72.9128 -88.653 -37.3552 -5.34308 360.325 -319.602 693.11
21940 1 25.5145 -107.948 -15.2642 -7.41426 -279.787 39.3899 85.6246 63.3517 -33.921 -292.941 355.827
19297 1 28.8689 -107.77 -17.9476 -144.537 53.6858 30.5851 -159.806 100.23 337.518 -290.997 695.524
14544 2 26.1071 -107.593 -20.5751 -3.13916 -36.1198 67.2308 46.1043 -12.7297 -201.986 -109.535 370.969
19612 1 23.6784 -107.567 -17.6677 118.824 -261.991 30.4969 234.24 -16.0927 162.543 -309.564 603.182
14671 2 24.8129 -107.462 -16.616 -12.1684 131.238 -17.0273 -88.3533 6.15285 -34.5669 -117.149 220.007
19571 2 26.9695 -107.363 -15.2367 32.2623 113.321 -37.1156 0.340385 -53.0291 -3.81361 -120.147 159.649
17022 2 28.1869 -107.228 -19.3098 67.033 -58.3894 61.6077 51.4903 -1.42749 -211.341 -115.083 396.277
17168 2 24.0703 -107.282 -19.21 -72.8605 52.6657 25.7458 -75.6945 -3.16303 -158.72 -111.605 325.418
24579 1 27.4936 -106.736 -20.6952 -114.983 159.353 -172.427 -90.4398 -18.7698 388.203 -313.712 756.32
26882 1 28.1765 -106.392 -15.2548 -91.9366 -277.459 16.0523 -84.5892 98.2297 -39.5098 -306.132 348.153
9306 2 28.8635 -106.674 -16.7436 24.2344 50.9884 -18.2764 34.7857 -53.9332 -40.6262 -117.884 144.804
16515 1 29.2938 -110.832 -15.1852 -164.337 -85.6889 262.327 -169.669 -38.5298 106.889 -288.318 528.927
26892 2 30.1895 -110.666 -16.5346 60.1229 44.9592 -134.823 75.5737 -58.3944 -90.8712 -118.507 295.659
24190 2 31.7011 -110.66 -19.0912 -113.546 66.1004 -16.4781 -0.149626 -133.09 -3.93744 -101.347 278.285
26963 2 34.3872 -110.161 -19.5131 -46.3614 -12.671 32.4519 -13.9534 -80.1485 -15.1373 -93.4341 158.853
24662 1 31.1283 -110.076 -17.6862 6.01657 -22.7929 140.44 -74.8746 180.22 171.561 -304.675 474.687
26896 1 32.879 -109.998 -20.1089 238.107 -16.3268 -102.738 60.797 289.434 24.0052 -336.919 598.6
2189 2 32.3769 -109.499 -16.8982 32.5547 -22.5859 -44.5255 40.5013 12.8539 -82.0774 -114.366 174.237
29458 2 34.827 -109.117 -15.8687 100.088 -4.71757 -64.3056 48.1932 90.9964 -70.9819 -103.061 260.2
2293 1 33.2695 -108.851 -15.6537 -194.957 -9.13023 70.5619 -159.753 -201.099 144.572 -313.2 562.388
24677 2 30.3902 -108.498 -18.1964 2.02528 -53.3265 -38.2715 74.9954 -72.8709 -144.851 -122.057 313.378
22091 2 32.4471 -108.418 -19.7482 -72.516 -13.9721 73.2478 9.5737 -129.595 -76.9642 -108.638 290.811
19371 1 31.5127 -107.425 -18.9463 101.074 34.9993 -68.5928 -180.192 105.055 262.207 -300.845 598.929
24863 2 32.9546 -107.301 -15.5711 62.5555 75.8688 -27.4164 155.814 92.1601 -35.6854 -111.232 334.073
19231 2 31.991 -106.582 -17.666 -4.20222 41.2189 -1.161 170.835 28.1472 -69.7577 -115.695 326.287
2400 2 -21.9904 -106.411 -17.9257 13.4667 -3.29609 55.3879 84.3958 -2.77101 -16.7503 -94.8463 158.031
29552 2 -22.6421 -105.87 -20.5025 11.0946 -63.9094 129.847 80.0582 -9.64732 36.9581 -95.7003 228.56
1920 2 -22.4279 -105.808 -15.312 62.9637 82.1829 0.987117 70.3766 87.9861 -25.5236 -106.025 213.165
27078 2 -20.1405 -105.547 -19.655 29.3165 -116.553 99.0028 94.1738 21.2487 27.8325 -96.2305 258.038
27347 2 -24.2293 -105.549 -17.0539 72.8515 9.26113 11.0176 137.312 48.7656 -26.191 -105.713 263.99
29545 1 -21.7235 -105.55 -19.2211 -54.5291 159.006 -236.325 -172.817 17.4806 -52.8595 -339.998 465.149
4800 2 -21.9797 -103.985 -18.8151 81.7331 -139.324 135.444 67.7198 -1.37959 16.2609 -106.429 279.609
29778 2 -22.7489 -103.301 -15.8106 49.5639 -96.9263 105.22 102.556 69.884 -3.20625 -120.925 280.972
24638 1 -22.1593 -102.408 -19.0443 -211.046 316.27 -341.916 -98.3418 -36.0274 13.2988 -314.853 630.584
24469 1 -23.7037 -102.187 -16.4807 -203.107 192.065 -255.619 -164.839 -152.307 56.8734 -293.947 583.508
27308 2 -22.8398 -102.047 -20.4664 67.3598 -169.078 202.24 49.598 8.58423 -15.2802 -106.849 338.065
29448 2 -20.6251 -101.904 -18.8302 133.377 -165.062 163.019 39.8752 -6.88067 -4.18086 -110.652 322.111
2300 2 -23.0342 -101.816 -17.8783 101.036 -124.504 154.896 62.0016 50.9138 -26.1564 -115.929 295.429
7160 2 -23.9934 -101.232 -15.2277 137.942 -76.4103 93.7253 52.3421 82.9972 -33.1197 -124.668 265.706
27239 2 -24.99 -103.057 -16.8182 104.346 -77.3889 93.2316 101.212 81.4533 -26.2539 -116.136 289.542
2144 2 -19.4768 -100.808 -16.8278 124.72 -122.013 122.913 32.914 -56.8996 -22.4531 -118.641 273.696
24757 1 -19.212 -101.887 -17.9937 -252.366 306.713 -271.118 -44.1639 102.176 16.7327 -307.19 601.179
24386 1 -18.4777 -105.668 -19.6502 -56.4598 208.349 -162.938 -140.559 -43.0994 -52.2811 -347.082 427.435
7392 2 -18.0832 -105.612 -18.0399 24.9317 -57.2672 64.2114 49.042 4.82072 -56.4188 -97.4097 168.412
4570 2 -18.901 -103.253 -17.2444 112.828 -182.088 126.781 23.026 -42.588 -9.77838 -113.883 314.013
4892 2 -13.8847 -104.255 -18.689 159.822 -165.648 72.2118 -57.512 -74.8352 -5.44074 -106.746 334.521
24363 1 -17.7059 -104.351 -17.0694 -163.892 268.003 -226.352 -57.6135 39.0899 113.452 -318.06 520.161
24934 2 -17.5442 -104.297 -15.3586 92.1708 -72.1188 108.162 10.5818 -39.9111 -88.4882 -112.979 241.824
22265 2 -17.9266 -104.193 -20.1228 68.2099 -186.85 99.6531 69.4326 -8.22038 12.543 -101.427 298.666
2289 2 -16.297 -103.795 -17.5919 138.82 -202.023 85.7663 17.7408 -49.8259 -44.6979 -109.51 339.546
7186 2 -14.2761 -103.315 -16.2359 170.405 -185.46 99.6576 11.8247 -69.0355 -29.19 -111.056 351.769
4609 1 -14.7778 -103.298 -17.7491 -352.046 421.72 -196.212 26.8012 126.367 61.3493 -315.641 750.847
4419 1 -17.5216 -102.672 -20.2757 -188.794 400.502 -320.969 -125.191 38.2361 121.027 -323.343 733.47
9883 2 -15.9198 -102.482 -20.4829 125.595 -218.086 134.346 -1.8224 -51.8732 -52.8934 -105.427 371.048
7038 2 -14.5432 -101.884 -18.4726 147.335 -157.433 101.389 -1.09199 -43.604 -30.796 -108.83 299.24
2205 2 -18.0033 -101.812 -19.0102 96.3921 -157.444 126.251 43.2454 -46.5993 -48.882 -110.696 303.639
9589 1 -14.8395 -101.367 -19.9924 -223.647 289.992 -237.666 34.1246 87.8618 114.264 -322.52 580.555
2295 1 -13.3414 -102.808 -15.0779 -423.973 263.478 -136.234 -49.0252 144.562 91.9244 -309.153 672.928
7151 2 -14.1155 -101.477 -14.6835 190.6 -62.1309 36.7325 47.8922 -49.9722 -38.5793 -114.063 259.805
14807 2 -8.27473 -106.292 -17.9283 -11.8232 -27.6161 60.3508 116.203 -7.83564 -18.7481 -119.454 219.879
29477 2 -11.6178 -105.618 -18.6699 20.8859 -35.1956 42.669 -33.8677 -14.6376 -1.00448 -113.425 94.4889
29655 1 -8.22783 -105.71 -16.4025 -13.89 -1.87167 -223.332 -219.77 15.391 3.83282 -295.967 438.381
4613 2 -9.55591 -104.808 -16.1122 37.9746 4.37772 112.52 36.6065 -31.2818 -6.95645 -118.174 127.637
9685 1 -12.5447 -104.56 -19.4377 -185.761 214.549 -148.824 106.52 39.843 14.6609 -314.008 431.593
4785 2 -8.84271 -103.762 -19.6119 65.1406 2.50713 78.4149 99.9669 -4.22335 -24.1013 -116.944 191.59
2482 2 -11.555 -103.333 -19.2457 114.894 -95.0557 95.1814 18.6687 -5.79134 -3.9298 -112.526 203.768
12109 1 -10.2402 -103.272 -15.9584 -221.851 51.9375 -172.026 -97.9594 93.6933 9.30045 -301.718 345.23
24667 2 -11.8082 -102.904 -15.6314 188.185 -100.995 63.7331 38.2464 -66.3758 -16.6807 -113.332 285.595
10084 1 -10.0196 -102.885 -18.9722 -159.664 36.5829 -188.532 -179.697 12.4816 -4.62347 -305.238 377.38
7283 2 -9.86128 -102.653 -17.4519 78.9358 -6.19872 83.3502 96.7125 -22.6486 3.72619 -116.268 193.09
2122 2 -9.85791 -101.499 -19.7054 78.9929 -4.37921 112.987 102.38 13.6598 9.68718 -112.306 207.911
9894 2 -7.48852 -100.932 -16.072 139.458 5.99228 28.8448 85.6049 -56.7459 -31.7003 -122.697 223.484
9678 2 -4.75259 -105.685 -19.714 105.599 -60.2615 14.256 117.637 -29.0798 7.52963 -107.999 254.805
4509 2 -6.81865 -104.916 -15.968 117.914 -14.0149 54.038 148.113 -36.4755 -26.5565 -118.987 291.51
9803 2 -2.00888 -104.521 -15.1458 184.439 -43.8223 -216.029 108.572 -40.6265 -19.223 -121.582 403.101
2362 2 -3.13557 -104.444 -17.7947 134.664 -108.195 48.8863 106.357 33.7757 20.1202 -115.521 289.963
7036 1 -3.75601 -104.462 -19.2692 -257.871 202.171 -150.943 -218.565 -4.48957 -10.7101 -309.794 563.558
27464 2 -2.55754 -104.314 -20.2969 93.3852 -120.597 93.991 108.48 -26.2189 -5.38851 -110.901 288.741
17389 1 -5.71708 -104.266 -15.0145 -412.026 51.8969 59.4677 -300.866 208.108 123.354 -294.515 816.046
12280 1 -2.8705 -103.81 -16.3536 -412.427 218.299 125.486 -222.698 -26.6474 -25.203 -287.564 707.608
7182 2 -4.40334 -103.766 -15.7547 249.088 -59.9862 -63.7713 134.653 -49.7432 -24.4244 -121.586 400.398
9498 2 -4.75084 -103.203 -19.2633 139.438 -63.7686 78.5551 81.9497 -10.1526 -5.07589 -116.674 230.568
9605 2 -1.99692 -102.452 -16.4064 195.775 -120.274 -44.7073 55.9225 19.977 16.5353 -128.77 305.146
2032 1 -5.76207 -102.016 -19.667 -238.56 46.2496 -169.85 -145.7 52.68 -13.0371 -299.559 372.544
4427 2 -6.50659 -101.364 -18.4039 112.79 -11.2829 78.2228 74.5968 -21.5376 5.71817 -120.572 174.596
12163 2 -4.99044 -100.712 -20.2558 106.567 -55.2778 113.414 51.7527 -64.1271 -1.67257 -118.611 218.47
15108 2 -6.86795 -102.653 -20.6629 117.29 -34.9703 92.267 104.887 -0.994675 -6.18098 -115.214 230.48
14507 2 -0.857023 -100.842 -14.6003 137.944 14.5017 -108.151 41.2184 -45.2436 127.909 -127.868 325.18
7374 2 2.42381 -104.125 -16.0152 197.692 -67.5608 -230.769 -49.1214 51.3331 -9.00233 -111.34 394.556
9511 2 2.53992 -103.641 -18.7328 50.196 -105.325 56.0598 -43.2264 45.3287 -22.2738 -104.149 195.937
14696 2 0.102363 -103.607 -20.2238 72.1188 -126.861 122.843 81.2567 15.3484 -35.6517 -110.985 276.743
12097 1 3.22653 -103.3 -17.2069 -352.243 283.429 173.728 78.1676 -162.987 31.5404 -318.227 668.871
9686 1 1.66558 -103.131 -20.0334 -26.7399 248.244 -272.514 -47.5478 -34.4298 94.2086 -315.925 490.478
9773 2 0.150409 -102.996 -15.2456 180.428 -130.231 -219.716 43.6038 -23.3131 8.15768 -129.805 373.965
14585 2 2.60037 -101.846 -16.8471 177.019 -131.82 -58.0754 15.9323 58.0974 -44.3225 -118.898 307.938
12277 1 -0.654102 -101.707 -15.9741 -359.749 149.885 175.9 -127.126 85.5112 -18.2136 -273.488 587.432
12305 2 1.5488 -101.592 -19.6956 -1.80574 -134.436 201.174 56.2931 14.9197 -69.9921 -117.619 332.542
7008 2 0.28296 -100.951 -16.9081 132.131 -42.9353 27.9496 79.0287 -43.3512 -40.3645 -125.835 229.185
7268 2 4.81271 -103.096 -16.8723 263.796 -172.091 -152.882 -34.0682 123.2 -2.26857 -99.0877 480.651
16801 1 1.62481 -103.834 -14.5944 -512.921 193.91 596.216 31.7422 -119.432 46.9132 -304.115 999.119
10265 2 4.77535 -102.004 -14.674 307.197 -186.804 -210.817 12.5668 185.845 24.0541 -108.506 601.914
14519 2 6.92822 -103.128 -15.0932 330.626 -158.461 -247.33 -39.7774 118.708 -5.80838 -97.5286 581.113
14795 2 7.84178 -102.749 -20.1777 283.368 -174.857 10.8331 -31.5746 38.533 -45.0609 -75.5374 415.812
12208 1 5.77762 -102.291 -15.9026 -685.763 393.134 390.14 -17.9295 -264.94 49.6269 -331.25 1174.62
14232 2 6.43753 -100.874 -16.4156 362.388 -192.667 -119.157 13.7489 64.3599 -63.4536 -100.54 545.674
9893 2 9.46655 -100.776 -19.7024 171.49 -258.247 72.1849 -133.668 72.1123 -29.3363 -97.8269 472.91
11906 1 9.00439 -102.032 -20.7486 -361.356 414.427 -95.2391 185.887 -230.971 56.5172 -360.528 859.94
24705 2 14.702 -105.32 -18.9573 4.05288 55.9074 -57.0729 -123.693 42.0523 45.0939 -83.5364 258.652
22018 2 12.3637 -104.419 -17.6546 -52.8428 -26.8318 -49.9785 -42.2182 80.8353 -17.9202 -99.7744 162.861
19489 1 13.655 -104.38 -18.6366 107.67 94.428 53.643 167.538 -172.713 2.20307 -339.085 419.631
19662 2 15.917 -104.057 -15.8625 99.2004 -100.662 -43.1385 -173.235 50.1096 -97.7997 -106.921 397.512
17263 2 13.0506 -103.373 -19.8221 -46.6618 -141.393 22.9854 -78.7566 92.8608 -14.931 -101.214 256.063
17351 2 14.1856 -103.191 -17.4502 23.8349 -171.128 -10.5162 -103.228 57.2139 -74.4945 -112.59 301.546
17008 1 12.6442 -103.145 -16.7512 -45.7818 301.963 -2.21088 239.217 -101.503 110.169 -308.077 588.785
14385 2 12.7812 -103.228 -15.188 63.0685 -136.29 3.68994 -129.567 24.133 -66.1579 -114.166 310.922
24555 1 15.6913 -102.886 -16.9393 -270.098 318.578 7.44362 206.143 -8.42414 216.459 -315.189 726.944
17128 1 11.9375 -102.47 -20.4205 39.8975 350.456 -99.7047 194.477 -231.947 81.4672 -330.41 673.842
14709 2 11.968 -101.833 -17.2796 72.6892 -168.791 24.8081 -158.859 34.689 -52.046 -114.606 369.443
17469 2 15.4488 -101.413 -16.2838 107.867 -75.2936 35.5849 -58.7174 12.141 -66.7966 -113.413 222.944
22295 2 16.615 -101.034 -20.1038 167.071 -179.684 -8.71457 -84.5012 -55.097 -73.7846 -104.63 370.197
16997 2 12.3736 -101.078 34.928 56.2928 -181.031 72.9171 -78.187 81.9636 -79.8359 -104.909 343.743
19415 2 16.773 -102.675 -18.0578 192.999 -164.063 -14.2198 -105.167 -79.3149 -118.782 -102.966 436.833
14611 2 22.5966 -106.589 -17.1927 -35.6028 89.5666 -11.1696 -159.75 -27.1473 -29.2982 -107.451 307.493
19897 1 21.9666 -105.094 -17.2739 23.5118 -0.327918 -36.656 318.949 64.7694 68.0277 -324.519 578.28
19481 2 21.6254 -104.989 -18.8844 -27.4223 -23.8501 18.0712 -191.007 -37.4262 -70.1925 -102.815 361.046
24600 2 21.1023 -104.898 -15.8944 46.163 -45.8223 -20.6453 -146.979 -74.4798 -26.0544 -103.36 300.443
19465 1 21.871 -104.564 -20.391 -5.17145 89.2455 12.1225 378.733 100.739 181.499 -329.666 753.105
24670 2 18.1734 -103.051 -20.2834 121.018 -136.096 -46.5871 -176.793 -54.6683 -68.1448 -95.4441 409.597
22454 1 17.5973 -101.989 -19.2143 -326.74 317.586 15.825 244.537 152.097 172.114 -329.715 805.884
17467 2 18.8533 -101.081 -18.7745 119.999 -73.9536 -21.5747 -108.839 -30.3935 -36.4737 -104.492 269.262
27356 2 23.1018 -103.54 -20.4465 22.989 -24.2163 26.5381 -122.648 -63.9477 -80.6707 -103.157 281.651
22457 2 27.2332 -105.16 -20.6437 51.8074 -34.7099 44.7098 32.3509 1.53022 -134.934 -109.193 254.341
29290 2 27.6411 -104.941 -14.9407 54.5231 136.381 -19.3784 15.2562 -39.4637 22.5872 -108.596 158.469
14501 2 23.2608 -104.101 -17.0398 5.65552 25.6908 30.0174 -93.1548 -4.07613 -11.4186 -106.227 164.26
19707 1 27.1448 -103.474 -15.0577 -166.148 -119.829 62.521 -19.6311 79.9625 16.9213 -320.593 255.03
19667 2 25.6426 -103.336 -15.7856 73.2165 43.421 -37.1435 -15.3904 -35.1674 -15.5191 -107.07 122.157
24947 2 28.2486 -102.741 -20.2316 45.8427 34.0067 40.8693 38.6013 -1.66611 -31.0701 -104.798 86.49
29827 2 28.2999 -102.901 -16.047 85.0051 36.8553 -10.7197 35.3179 -39.8104 -26.4752 -106.395 132.182
19755 1 24.1598 -102.937 -16.3453 -108.658 -54.0863 19.8113 82.7491 15.0778 51.2016 -324.097 203.864
26910 2 23.3504 -102.338 -15.0466 43.5978 7.96422 -14.328 -72.8758 -12.105 -32.0053 -105.85 148.345
24103 2 24.3964 -101.656 -17.3577 80.9177 24.5463 4.57135 -57.1625 -9.59576 -67.8 -101.39 169.033
2214 2 25.7411 -102.984 -20.8146 61.1682 13.4361 15.0773 -10.7661 -7.49332 -52.664 -102.047 105.068
24661 1 29.0176 -101.545 -16.4533 -243.059 107.911 -75.2203 -70.9292 66.7816 92.2718 -319.265 382.698
24853 1 27.2136 -103.579 34.7604 -128.831 -20.7981 -43.6074 -45.338 8.34316 130.623 -324.687 259.402
19605 2 30.7565 -106.532 -19.9478 -41.592 -28.9226 71.7109 74.9624 -46.0572 -168.452 -114.443 346.284
12510 2 29.0248 -101.354 -18.1561 78.2388 -64.6583 82.2672 20.957 -26.4551 -47.9753 -107.242 177.013
4336 1 34.9243 -104.484 -17.4597 -187.275 73.6429 -147.813 -320.316 -150.831 45.6323 -314.77 664.561
26689 1 32.4899 -105.976 -16.3484 -85.0191 -167.852 18.0975 -375.292 -125.443 1.71932 -310.957 704.12
24623 2 31.7213 -105.105 -15.3001 51.85 75.5653 19.9414 131.519 24.7915 43.3034 -109.804 248.391
19223 2 33.6734 -105.023 -16.7194 80.2139 15.5938 5.9838 191.28 70.2223 -29.545 -110.673 363.409
29923 2 32.3665 -104.721 -20.2607 -13.4826 3.39088 77.6183 130.56 -11.762 -71.9396 -110.033 272.26
19580 2 34.6487 -104.155 -19.0303 71.4824 -73.6348 123.114 137.697 50.294 -30.3335 -107.97 313.763
2271 1 33.8155 -103.877 -20.3701 -63.9288 104.786 -225.911 -238.006 0.278898 50.4137 -318.512 509.506
24660 2 33.3249 -102.373 -20.647 39.2473 -67.94 104.489 62.4957 6.68795 -17.3745 -110.159 188.403
24761 2 30.8028 -101.902 -20.0882 45.8507 -15.8215 60.1723 37.7645 7.22087 -29.1758 -109.849 108.997
27050 1 29.2428 -101.588 -19.7131 -106.759 38.8422 -130.495 -50.2223 7.14714 70.1262 -320.516 218.385
29745 2 30.5063 -101.384 -15.921 116.805 -64.5298 50.9214 42.9735 -2.7069 -39.684 -110.452 188.581
22360 1 32.277 -101.254 -20.2079 -122.087 130.771 -218.752 -70.047 -55.9107 64.9017 -311.665 366.686
2209 1 31.9371 -101.178 -15.0972 -275.758 109.981 -132.306 -81.8599 -30.1936 52.2365 -308.778 380.87
27149 2 32.6663 -100.893 -18.6669 69.9403 -82.1459 85.5683 31.2997 31.0756 -23.9577 -113.702 182.508
22068 2 33.1317 -100.702 -16.0394 146.987 -76.0564 93.1592 27.3517 41.4423 -34.8117 -115.165 227.315
29668 1 -20.3745 -100.147 -15.6872 -204.079 74.0493 -198.904 -102.174 56.0171 122.131 -283.991 401.775
29771 2 -24.177 -99.9277 -20.3482 70.6959 -144.624 176.249 38.3011 15.7719 -9.62577 -108.568 292.672
27072 2 -21.5637 -99.3762 -16.4228 94.7392 -54.3736 96.6459 61.3295 30.7583 -50.9406 -122.798 210.783
29642 1 -24.5809 -98.9148 -19.1346 -187.083 179.911 -217.445 -72.74 -109.934 77.1382 -311.268 465.542
24479 2 -23.2393 -98.4535 -18.3414 122.055 -114.06 117.396 57.8121 70.0405 -49.085 -113.076 294.353
2284 1 -22.2372 -98.0274 -17.2163 -241.37 176.843 -228.246 -135.73 -93.6925 144.391 -299.887 560.12
27378 2 -22.8562 -97.2488 -15.9648 134.692 -76.0681 83.6669 35.0772 32.5492 -53.2656 -119.741 227.268
27180 2 -21.0626 -97.1962 -17.9941 108.342 -118.21 133.72 102.551 -13.169 -102.196 -114.172 348.025
9793 1 -20.0486 -96.0928 -18.6124 -165.829 240.821 -304.749 -149.124 85.7384 214.63 -308.975 684.192
24669 2 -20.1351 -95.6083 -20.1155 62.528 -116.056 100.604 50.2422 -3.71283 -90.9152 -109.777 269.356
9131 2 -24.4197 -95.0966 -20.415 85.502 -126.855 102.191 24.221 11.3838 -110.474 -106.026 296.109
9896 2 -20.2716 -94.8914 -17.555 71.2546 -67.4796 131.856 63.151 -41.1199 -103.057 -113.7 283.242
1904 2 -15.5912 -99.9916 -20.1396 62.1677 -89.3457 130.188 6.04958 -24.5877 -52.4216 -105.962 219.218
2399 2 -16.0189 -99.3998 -14.8128 179.801 -18.2257 9.19018 63.2956 -19.0993 -75.1161 -116.432 254.122
4778 1 -16.3538 -98.7372 -20.714 -64.2849 188.597 -299.476 -43.9637 55.2905 60.3262 -320.745 452.357
29951 2 -16.8688 -97.8812 -16.973 139.007 -98.4116 94.3777 76.2167 -26.1124 -65.1753 -115.648 282.806
4900 1 -16.1273 -97.9165 -15.538 -382.534 187.423 -58.1419 -133.969 42.1386 155.289 -299.966 613.764
4714 2 -16.2994 -97.6204 -19.5557 70.1999 -102.155 160.294 52.8337 -4.70153 -23.6702 -109.173 251.938
6930 2 -14.6785 -97.5053 -16.1238 213.233 -134.827 31.0884 67.0596 -18.4201 -88.1732 -115.618 358.828
7383 1 -16.9366 -96.9446 -18.2639 -232.22 257.005 -305.54 -136.559 23.2409 129.542 -307.827 623.294
2099 2 -18.4438 -96.4705 -18.3922 94.7455 -130.534 157.662 55.7288 -32.3473 -85.7349 -114.691 321.544
22297 1 -13.3441 -96.5402 -16.2544 -494.504 281.942 -86.8866 -96.19 45.6809 201.877 -302.695 780.261
12392 2 -15.9808 -95.6073 -18.2278 154.02 -117.348 113.029 95.7432 -0.788414 -101.226 -113.885 349.913
4797 2 -13.7369 -95.2396 -17.0175 192.744 -134.928 46.8488 67.5112 -13.0813 -128.944 -116.351 380.677
2580 2 -13.9101 -94.8146 -19.4815 131.879 -134.682 142.424 46.1046 9.25947 -84.3723 -113.809 319.322
7394 1 -14.7184 -94.6635 -18.0895 -343.61 213.124 -185.26 -144.531 32.1197 217.545 -304.141 674.247
2492 2 -16.7903 -96.6268 -14.7389 193.788 -150.188 45.6152 53.1085 -27.6071 -34.4213 -119.199 321.884
7299 1 -7.24089 -100.292 -17.5437 -251.591 47.7945 -142.345 -127.316 56.034 18.1341 -288.273 357.622
7213 1 -9.69124 -99.9224 -19.4506 -158.687 54.7359 -228.5 -139.852 -21.031 -23.4618 -307.427 356.338
9716 2 -8.52498 -99.8737 -18.3682 96.1596 -29.315 76.9088 56.4549 -22.2072 0.41099 -120.637 157.291
7290 2 -11.0357 -99.28 -18.78 137.514 -46.1962 71.4565 52.8378 -17.9307 3.07406 -110.497 188.005
29938 2 -9.3321 -99.2101 -20.7843 54.7628 -74.8178 157.505 44.6086 41.3721 2.75669 -112.154 227.569
27156 2 -10.5848 -98.8812 -16.1818 159.752 -55.7439 28.4645 39.5841 -69.1905 -42.9928 -119.043 244.93
5029 1 -11.0059 -98.2167 -17.6204 -339.969 174.582 -103.606 -45.4369 76.4518 48.5398 -301.95 479.38
12588 2 -12.2212 -97.2923 -17.1611 237.239 -126.13 36.8645 19.1643 -32.9196 -68.3264 -115.445 343.126
9701 2 -9.91583 -97.1639 -18.1675 125.246 -104.044 70.3925 -6.7353 -9.3494 -20.3078 -121.084 211.284
17479 2 -7.50137 -96.765 -19.3173 152.301 -112.49 120.923 38.3171 -30.9091 -19.9156 -120.637 266.929
12301 1 -7.89117 -96.5985 -15.1852 -366.693 221.001 -174.762 -66.1405 24.3822 22.7678 -286.053 534.684
7245 2 -7.91389 -96.449 -16.7653 173.629 -90.8722 37.3769 23.8371 -16.6681 -15.4951 -126.397 236.104
12292 1 -8.55626 -96.2993 -18.2512 -295.307 203.187 -166.285 -9.79245 37.2828 20.498 -289.166 454.472
29640 2 -8.97389 -94.7454 -18.6823 160.025 -124.177 99.7805 -13.3068 3.28228 -42.1731 -117.838 270.514
2010 2 -11.4147 -94.4834 -19.292 134.385 -145.954 136.692 -58.5625 55.1366 -62.689 -115.735 332.326
12299 2 -10.1272 -94.388 -16.6102 152.906 -89.9173 37.252 -18.0242 14.0219 -24.319 -122.004 218.161
12193 1 -6.87047 -97.0473 -20.7345 -276.295 227.521 -250.775 -116.071 17.0971 109.647 -301.471 564.789
12366 2 -4.1032 -99.2853 -16.0149 183.811 -26.3413 26.6066 31.4403 39.7287 21.3913 -125.138 211.928
9791 2 -6.28496 -99.0529 -17.358 140.72 -66.115 73.7569 51.6903 -10.2343 -1.37732 -126.212 204.328
7465 1 -4.74677 -99.1493 -20.3121 -238.039 116.711 -236.661 -123.57 155.516 -8.94914 -295.382 493.929
9875 2 -4.33599 -98.6886 -18.7577 127.579 -78.8408 132.171 79.4799 -40.2951 -5.63198 -121.645 259.799
12266 1 -4.84788 -98.4234 -17.2701 -278.952 106.585 -207.198 -143.06 -14.6949 5.74424 -284.633 433.9
7389 2 -6.19165 -98.4409 -20.7458 124.804 -101.97 111.453 49.2499 -30.9401 -18.6353 -118.56 244.474
12204 2 -4.74377 -96.8555 -17.1781 157.793 -92.1594 101.181 89.7302 5.89281 -18.8833 -125.025 277.235
9818 1 -4.0844 -95.4184 -17.4136 -323.769 186.852 -256.007 -173.398 -9.91483 80.8766 -290.011 583.818
7385 2 -3.15708 -95.4961 -18.7607 169.634 -101.863 121.607 73.8773 -10.8548 -24.857 -121.398 285.585
14894 1 -2.23992 -95.4988 -20.1042 -334.847 170.142 -221.898 -60.4658 -3.60744 -24.9108 -294.552 472.866
14685 2 -3.2809 -95.2179 -15.967 182.8 -104.591 112.586 106.271 68.2864 -8.41114 -122.667 339.744
9684 2 -1.20146 -96.7552 -20.0265 160.071 -108.894 130.048 14.8244 -13.556 55.5055 -120.944 274.994
17301 2 -5.29002 -94.235 -17.504 159.98 -52.3633 73.1508 77.2248 -24.7146 -46.8107 -120.738 245.944
9958 2 -5.74077 -95.8204 -21.0148 101.488 -76.3594 133.658 63.7272 -10.4234 -86.2276 -116.449 270.557
7274 1 1.91068 -100.441 -16.7833 -241.344 36.8403 17.0984 -99.8004 -43.3811 30.6387 -291.636 332.606
2007 1 1.72113 -100.025 -19.6128 6.34109 215.055 -450.028 -74.1992 -15.7164 87.1436 -296.229 622.193
7007 2 2.33877 -99.7363 -18.192 49.8685 -71.3764 131.875 42.6701 39.0917 -28.3453 -117.161 209.345
4740 2 2.07656 -99.6452 -15.4038 178.776 34.9336 -63.7275 57.7586 41.2045 75.6565 -119.183 277.29
11719 2 0.32025 -99.0866 -19.6374 49.9508 -74.649 213.106 23.1815 5.2014 -13.0427 -121.098 254.318
12183 1 1.69383 -98.0388 -15.096 -315.964 49.945 -47.7573 -144.279 -14.3558 -208.69 -291.526 549.006
14481 2 1.56267 -97.5652 -16.6186 87.6075 -39.3992 91.6662 65.2485 31.2269 46.278 -122.785 196.939
12170 1 0.215704 -97.4891 -20.1111 -141.42 193.717 -370.56 -2.78111 -8.42397 -116.612 -290.474 531.645
17009 2 1.32433 -96.8113 -19.2023 51.7823 -81.4208 186.487 39.3862 36.5548 61.1232 -120.939 271.481
17101 1 1.81827 -96.4816 -17.7424 -165.598 158.641 -284.037 -103.99 -120.755 -63.0592 -290.55 495.659
14952 2 3.40391 -96.0658 -17.7298 173.679 -167.809 131.329 32.0928 46.3225 22.8634 -117.272 339.177
9616 1 4.80425 -95.2977 -17.5987 -481.495 484.76 -277.605 1.68362 -41.1125 -34.7804 -310.918 887.084
12191 2 0.985965 -95.1145 -17.3032 97.0126 -83.6051 154.419 32.7775 50.4935 6.07993 -125.359 239.311
19745 2 11.0714 -100.175 -15.5318 176.704 -128.78 -6.07531 -123.1 3.07646 -16.1532 -112.684 342.293
16985 2 8.53695 -100.348 -15.0596 322.95 -175.495 -88.2895 -86.6182 19.9667 -43.5608 -106.067 491.917
2368 1 7.52551 -99.7674 -16.2194 -660.868 385.358 137.898 136.074 -27.1077 96.0066 -329.446 991.126
4578 2 8.50302 -99.585 -17.5461 281.877 -259.841 17.0185 -103.38 -16.5972 -71.1375 -101.165 517.88
9602 1 9.56633 -99.4779 -18.7546 -376.398 462.271 -156.801 252.521 -68.1877 136.291 -328.869 910.161
12198 2 6.97122 -98.354 -15.6623 298.495 -132.105 -64.7096 -101.046 25.4495 17.3777 -105.392 440.929
16521 2 9.25354 -98.1871 -19.6983 188.443 -228.857 103.089 -93.6864 67.5895 -70.7611 -101.99 448.178
12004 1 6.44748 -96.8381 -15.2806 -572.721 342.833 5.62273 152.124 -78.0139 -82.0331 -313.957 866.653
15160 1 8.98325 -97.0006 -20.7215 -390.292 494.558 -234.937 112.247 -161.771 80.6812 -329.181 897.476
12176 2 7.72006 -96.1527 -20.0909 252.345 -292.682 126.718 -38.7085 15.5479 -6.16857 -101.749 499.701
14699 2 5.79837 -96.2352 -16.6691 275.913 -225.611 61.7561 -41.8328 26.7372 25.5077 -109.63 446.465
14799 1 6.3385 -95.4538 -20.312 -513.468 620.173 -291.944 35.4399 59.0314 -44.5163 -328.821 1050.36
4518 2 5.57913 -95.0141 -18.9667 255.062 -287.088 182.246 -7.75187 -29.4153 19.1122 -105.053 513.443
19763 2 10.3698 -94.9396 -16.9097 203.328 -167.834 70.0801 -64.4959 -16.8846 8.31793 -109.189 345.835
22085 2 10.2778 -96.0584 -20.7554 151.624 -210.29 113.776 -22.5149 98.8957 -38.5872 -104.47 392.485
16803 1 11.8683 -100.186 -16.8849 -243.886 212.942 -100.484 258.999 -56.8183 87.7445 -307.222 630.69