ITEM: TIMESTEP
400000
ITEM: NUMBER OF ATOMS
29952
ITEM: BOX BOUNDS pp pp pp
-2.5141811457830563e+01 3.5127105799817414e+01
-7.3134726741497630e+01 8.3120021083497633e+01
-2.0959296319110130e+01 3.4827149464552392e+01
ITEM: ATOMS id type x y z v_StrAtomXX v_StrAtomYY v_StrAtomZZ v_StrAtomXY v_StrAtomXZ v_StrAtomYZ c_PEAtom v_VMS
2 1 -23.5532 -69.2025 -15.4467 -114.297 97.7874 -118.669 87.6182 -44.6145 18.1623 -324.408 275.532
25066 2 -20.952 -68.9685 -20.304 76.3922 -121.92 65.2403 -62.1969 -48.9976 -87.482 -102.546 281.083
7573 1 -22.469 -68.7636 -20.0917 -126.369 254.564 -158.177 127.013 106.127 161.303 -324.959 564.34
29852 2 -22.9207 -70.1571 -16.5704 68.8806 -85.908 60.9923 -56.0934 10.761 -43.0891 -105.118 195.34
29946 2 -22.9295 -70.0167 -19.187 71.0467 -126.687 64.2063 -69.866 -29.0692 -81.0393 -104.738 273.265
2569 1 -22.7097 -71.0001 -17.9465 -177.244 200.692 -107.197 156.657 25.0449 149.62 -329.264 513.745
22472 2 35.1034 -71.5472 -20.2968 12.3661 -26.5366 48.9753 14.5572 -27.6755 -9.86726 -98.4545 86.6226
2123 2 -21.2937 -71.783 -18.0825 60.8843 -76.8294 56.0137 -95.2559 -26.5569 -56.5134 -101.339 239.241
27288 2 -24.0533 -71.9378 -17.9769 87.1715 -47.1381 30.5349 -14.3209 -5.24893 -75.2771 -99.684 177.025
27268 1 -19.974 -72.5486 -18.0619 -29.9978 84.8443 -132.923 134.745 46.8498 71.6963 -331.946 334.779
12586 2 -25.0874 -69.5318 -15.2132 47.1716 -37.2959 37.011 -24.3468 -17.1945 0.686115 -104.041 95.1126
19874 1 34.8192 -71.555 -18.6944 -78.2544 100.227 -75.4027 -42.6616 20.7802 126.939 -332.661 294.026
2175 1 -19.4456 -72.439 34.7765 16.7678 65.257 -120.392 148.312 18.8362 70.5872 -333.933 331.386
4917 2 -19.2475 -70.8579 -20.8835 6.82457 -35.3435 60.6878 -59.0941 -18.3159 -62.775 -100.305 173.941
29384 2 -23.3846 -67.6745 -15.9819 28.6448 -84.073 67.2391 -33.287 24.2215 5.75451 -104.907 154.041
22302 2 -22.7481 -67.4423 -19.32 10.8488 -90.2688 100.106 -34.8722 -38.1534 -64.0223 -103.628 218.011
19770 2 -20.3965 -67.1871 -15.3236 116.83 -62.6892 15.774 -36.267 7.44317 -0.870314 -103.758 168.56
29806 2 -17.1469 -69.8053 -17.1753 66.9258 -45.6192 62.9169 -8.79657 -25.7951 -29.2174 -102.401 130.463
9873 2 -16.0584 -68.4949 -20.7788 77.8197 -100.28 32.3869 -28.5415 -2.00462 -68.4761 -100.785 205.463
9964 1 -17.3441 -71.3894 -16.9876 -188.493 108.368 -83.7288 63.4469 35.6284 18.6967 -329.245 291.437
7486 2 -17.9949 -71.5498 -15.481 75.2989 -50.8361 24.8921 -33.8674 -17.1565 -17.0709 -104.658 131.496
2504 2 -13.8718 -71.907 -19.5388 -35.5376 -43.4014 42.2529 -8.48108 10.9965 -69.8312 -106.661 148.097
4890 2 -18.5709 -71.7078 -17.9078 63.2497 -77.1231 66.4499 -38.6997 2.95626 -8.19073 -102.107 157.748
12515 2 -15.8944 -72.0874 -17.2597 102.257 -58.1823 50.5119 -37.6304 -38.2452 -4.24388 -103.443 169.725
2517 2 -14.7043 -72.8471 -15.2351 79.7389 -63.4405 56.2482 -15.8972 -15.8251 -11.997 -103.748 140.107
2365 1 -14.2334 -72.9121 -20.7974 6.46382 132.137 -152.521 -52.6106 -37.7496 138.698 -323.546 362.408
29678 1 -17.0642 -68.2192 -17.3135 -114.759 204.656 -206.706 -3.40339 68.7995 53.1589 -331.264 403.19
7435 2 -13.681 -67.91 -15.497 51.0482 -92.9963 55.5871 -20.5 25.4485 -2.16226 -102.066 156.974
5099 2 -17.4993 -67.6894 -18.7651 58.3277 -159.917 136.463 -5.07751 -9.35995 -57.2843 -99.1226 284.558
209 2 -17.8941 -67.5748 -16.1231 57.8421 -74.4015 48.8477 -12.1873 -49.0491 7.72924 -103.433 155.634
2380 1 -17.3723 -67.5295 -20.391 -159.16 265.228 -126.705 -4.53334 -36.5025 198.714 -335.385 538.428
4915 2 -15.609 -67.8101 -17.1116 34.6248 -115.346 98.9557 -18.384 -32.0716 -11.7481 -102.705 201.968
9790 2 -13.7747 -67.3255 -20.4357 26.3269 -96.9812 41.132 0.630775 -26.0577 -85.5855 -100.954 203.132
2600 2 -13.2892 -69.1807 -18.7239 -19.6315 -31.6678 83.944 -26.9741 -18.0646 -50.9884 -101.398 151.923
12286 2 -7.93326 -69.4142 -20.4577 73.7019 -68.9404 60.4424 -2.04315 78.6491 -35.9304 -98.9919 202.667
5198 1 -12.8529 -70.6986 -19.2197 76.7305 56.0867 -149.183 39.7312 -6.39816 153.759 -327.695 350.12
14780 2 -11.8362 -71.2487 -18.1871 42.6841 -68.0861 62.3347 -18.0647 42.9658 -83.9621 -101.734 206.153
24490 2 -12.2947 -70.3965 -20.7436 -0.722794 -58.894 68.3829 9.61263 -36.0076 -79.5098 -101.851 187.914
12377 2 -11.0497 -72.1747 -15.7007 92.3337 -90.8384 32.0303 -20.126 27.4003 25.2241 -104.386 177.536
7478 1 -11.611 -72.4713 -17.1637 -162.357 169.711 -69.6739 98.4095 -118.687 45.852 -323.757 407.065
10157 2 -7.70619 -68.2153 -17.919 53.3249 -57.5201 75.0652 -11.7888 32.3389 -50.1067 -100.019 162.035
17593 1 -7.67561 -68.2097 -19.5509 -114.439 135.143 -125.25 50.1874 -137.985 52.9526 -334.048 371.744
4981 1 -13.0808 -67.5405 -18.9689 -80.4505 200.553 -164.258 -65.5285 50.3496 103.988 -337.528 403.069
27309 2 -11.4942 -67.3875 -19.2246 124.78 -98.0892 37.3907 76.18 -1.51328 -57.467 -95.1922 255.256
9788 2 -8.91567 -67.0955 -19.8975 59.8469 -85.0911 47.3473 -19.4769 66.9001 -27.2415 -98.11 190.113
7230 2 -4.82219 -69.655 -20.2835 27.3722 -33.323 60.0509 -9.39233 63.2695 -45.8664 -108.377 159.123
7695 1 -2.15544 -69.1009 -19.288 -62.2274 71.5357 -116.799 -42.7258 -50.2299 58.3481 -312.878 226.78
7416 2 -3.17216 -70.1301 -18.5504 40.4577 -69.8503 67.3039 16.5444 14.654 -23.1396 -114.425 137.556
10174 2 -1.7521 -70.1262 -20.4294 18.598 -74.7393 26.0258 12.8321 19.6648 -23.5138 -110.406 113.018
12399 1 -4.53399 -70.7509 -19.0702 -34.904 47.4624 -130.032 -59.5442 -54.984 60.6841 -310.399 233.287
7679 2 -5.58414 -70.6993 -17.7932 13.4123 -10.7776 67.881 40.7647 5.4807 -40.8089 -109.775 122.234
7600 1 -5.40707 -71.5484 -16.4431 -112.45 37.1416 -120.541 -128.637 35.9916 19.2316 -312.321 279.807
15088 1 -2.21361 -71.5974 -16.1497 -126.697 38.7978 -194.603 -50.0641 -4.24152 67.9223 -304.947 254.267
12226 2 -3.8097 -71.8021 -16.4313 45.7062 -21.5143 75.6518 51.1186 15.5108 -25.1416 -114.878 133.737
19881 2 -4.67233 -72.2444 -19.6239 12.5247 -7.72805 78.3302 64.4046 26.7601 -13.2802 -111.708 145.583
5064 2 -2.2974 -70.2982 -15.1361 36.5126 5.66198 56.4905 39.8728 10.1305 -11.8861 -113.871 86.4201
9887 2 -1.65101 -72.8436 -20.2467 72.0384 -25.3093 32.3208 17.6658 49.6494 -2.18895 -111.849 124.633
10082 1 -1.71167 -71.5854 34.5948 -49.6654 105.904 -138.225 -40.6525 -104.496 39.6071 -317.826 297.059
15268 1 -4.65803 -68.0089 -20.3185 -59.6615 81.2601 -145.483 43.2083 -90.6013 143.685 -323.01 362.603
2661 2 -3.23669 -67.9402 -19.558 32.8632 -25.8066 64.0206 8.73929 33.3986 -45.9228 -107.614 127.056
9522 2 -5.51469 -67.8325 -16.4528 40.9687 -26.9427 56.2105 -5.28198 18.2619 -17.667 -108.508 88.8815
9912 2 -6.13007 -67.6724 -19.8129 23.5529 -49.5865 62.6173 -42.5314 64.9378 -31.6376 -104.601 175.536
12405 2 -2.8277 -67.4594 -16.0895 42.4657 -9.91705 23.062 40.8814 16.4176 16.1931 -112.046 93.3443
5116 1 -4.28024 -67.5736 -15.4632 -113.262 17.009 -34.1609 -46.3943 -29.6886 0.444458 -313.26 148.408
2403 1 -6.96855 -67.3206 -16.8411 -64.6202 116.533 -155.684 29.8946 -39.8829 97.373 -327.606 305.783
7530 2 -6.04771 -70.902 -15.0726 90.1636 -34.2888 46.9447 44.5825 -46.4213 4.82752 -108.41 156.445
8075 2 -1.78506 -72.7434 -15.0928 45.9183 -0.0701874 75.5498 39.9632 -11.1508 -47.6981 -115.085 127.848
12284 2 -0.958698 -71.4048 -17.2132 65.7902 -34.7105 67.4785 3.73823 -1.54264 -16.4194 -114.42 105.502
20327 2 -0.889712 -68.5814 -18.5633 26.6668 -5.66073 46.0215 58.0177 31.5023 1.87788 -108.646 123.009
14813 2 1.01037 -69.7161 -17.3078 84.0584 -4.89734 26.4413 67.2982 56.8009 23.7852 -106.262 176.269
17378 1 0.348794 -68.2917 -17.5769 -146.464 3.65959 -30.0726 -165.649 -66.7358 -30.9305 -322.667 342.288
15080 2 0.673132 -71.072 -19.4252 24.4524 -49.1943 -8.62038 1.78626 -6.58057 -16.3604 -109.281 70.8831
12410 1 0.587985 -71.151 -17.7398 -101.38 51.2258 -84.0684 -35.6486 -65.4557 -17.3729 -313.352 196.259
9622 2 1.47631 -72.0463 -16.6742 82.4715 -50.8113 58.5262 25.8465 64.6362 17.6234 -108.761 174.973
5086 2 3.25687 -73.0891 -20.3185 94.3054 -117.797 5.37825 39.0034 -67.6713 21.9339 -99.4504 231.903
10034 1 0.834316 -70.7058 34.7192 -91.1147 128.613 -56.7175 -17.4781 44.5937 155.98 -332.614 348.965
12124 1 3.71111 -71.8064 34.562 -169.383 214.863 -5.91277 -132.104 135.325 -14.7672 -349.878 468.51
9891 1 1.59781 -73.0242 -15.3697 -234.203 102.779 -72.3481 -70.98 -88.499 -52.4286 -317.038 363.413
19541 2 4.49208 -70.6749 -20.3731 93.9345 -143.57 -6.24472 78.1288 -21.2702 -2.89477 -89.9282 249.692
24864 2 4.5391 -70.6234 -15.4071 170.763 -83.7609 -41.9823 54.8455 33.0993 12.36 -102.201 262.037
14784 2 -0.317227 -67.9694 -16.1924 82.6146 -16.789 20.828 63.7807 17.8318 11.0185 -109.037 145.186
19896 2 4.21887 -67.7178 -17.5809 116.768 -89.8148 -3.63291 42.0409 -6.16972 -78.8875 -97.7423 237.458
19860 2 2.40871 -67.2929 -15.5462 113.459 -75.9254 13.4614 43.9313 43.353 -50.1593 -103.232 214.253
19966 2 1.60034 -67.358 -17.9698 103.219 -41.9951 -13.138 105.845 20.186 -55.1452 -100.745 248.363
17675 2 5.96224 -68.7039 -19.472 12.2782 -64.9819 42.0897 49.9572 -19.7332 -49.6911 -90.522 158.821
12330 2 6.85469 -69.6258 -15.9875 95.5969 -102.966 -20.7433 29.4522 45.756 -45.4739 -100.175 212.009
27389 2 9.3843 -69.4241 -15.7003 155.121 -83.2975 -43.0224 28.0054 18.0341 -34.5198 -97.2172 236.149
17392 1 7.96629 -68.7663 -15.2782 -252.618 179.148 32.7605 -86.3917 -104.589 106.046 -335.328 483.312
14882 1 5.82084 -70.3087 -19.5873 -106.061 190.281 -53.2431 -124.742 19.431 -10.1094 -356.045 350.824
14701 1 5.8447 -70.8184 -16.4069 -230.202 167.229 28.3693 -81.0991 -90.7494 22.292 -337.032 409.847
14621 2 6.9979 -71.1369 -20.3218 54.7803 -127.927 6.79273 16.2384 -58.2517 -7.68203 -85.5629 195.103
14688 2 5.68471 -70.6813 -18.0164 74.0757 -97.2936 40.6793 53.6808 36.6643 -7.82945 -93.8695 193.962
19497 2 6.50565 -72.2216 -16.0486 144.852 -63.2839 -75.5681 20.4826 41.3528 11.8702 -98.4605 229.869
14682 2 9.19495 -72.632 -20.3773 109.556 -128.853 31.6779 -21.9987 -14.4968 -31.5565 -84.4408 222.276
22382 1 10.7779 -70.2626 -15.3853 -283.699 134.591 90.0257 -43.6858 58.9633 -13.3587 -339.344 418.332
5018 1 5.42174 -67.3454 -18.6902 -83.1185 175.085 -55.2582 -70.1327 6.36847 214.59 -345.378 461.817
17112 2 7.96274 -67.2247 -15.8244 107.782 -76.8882 4.24036 63.7903 46.4583 -59.0194 -96.9439 234.17
17206 2 14.326 -70.7606 -15.6238 48.3836 -33.3218 -13.7263 -1.37556 -24.061 -11.5449 -96.616 87.1839
29790 2 11.9053 -70.6128 -16.5098 72.8432 -43.5869 -5.84998 26.2212 -43.5018 7.77404 -93.9772 136.042
22168 1 13.295 -71.4317 -16.6566 -60.5774 40.7654 -36.3993 -35.3933 53.5879 -53.0489 -347.148 170.939
17182 2 13.7716 -71.6026 -18.2297 0.000137765 -43.8308 96.2147 14.5212 -32.3981 -1.38273 -91.0033 138.502
20053 1 13.1468 -72.0944 -19.6576 -3.85096 174.318 -201.544 -39.7733 84.9811 74.6065 -352.701 386.211
17471 2 11.5907 -72.4951 -19.3013 43.879 -114.472 78.1559 25.3665 -37.0626 -34.2568 -89.0092 203.1
17576 2 12.8164 -71.0282 -20.8287 -8.37721 -77.9837 60.5989 5.16698 -22.6397 -9.89088 -91.7278 127.731
19680 2 13.0375 -73.0155 -16.3209 46.8215 -13.47 -30.1123 -8.06349 -13.8838 30.0048 -94.7129 91.5949
24708 2 16.718 -70.5748 -14.8462 63.2468 -27.901 10.9178 -1.8022 -42.4217 -50.9512 -96.363 139.546
17561 2 13.9086 -68.0029 -19.2904 -10.7771 -62.1659 78.1172 0.122178 -2.91657 15.7993 -96.7967 126.038
27300 2 14.1889 -67.1964 -16.4986 44.5579 -79.3286 45.5854 11.8983 -19.1973 -58.9056 -102.477 165.578
22636 1 13.7366 -67.7396 34.8419 20.2245 118.926 -110.43 18.0779 -7.11034 -92.1288 -344.36 257.495
17192 2 17.201 -68.9638 -16.8073 61.8247 -50.3345 -14.3406 -28.5313 -29.3911 -39.3641 -98.49 139.716
19977 2 20.4772 -68.3126 -20.6085 67.0623 -79.1907 38.7356 -20.3986 -30.2689 -0.434595 -94.4869 148.482
22286 1 17.7443 -70.3414 -16.1145 -74.8917 49.4315 6.27062 -0.744926 80.257 31.1463 -341.157 184.902
24780 2 19.2826 -70.0022 -15.6983 20.257 -25.8832 -4.08291 19.2096 -21.1233 -9.26643 -97.9249 65.5859
19422 2 21.7548 -70.8753 -15.8818 28.273 -12.1663 -19.0637 15.7066 -54.6497 7.86741 -92.5448 108.846
19604 2 17.2134 -70.9877 -20.0343 19.789 -25.4862 56.7518 -22.1595 50.6017 28.7661 -94.0022 129.332
19712 2 17.729 -71.3764 -17.3676 7.22018 -11.3126 39.5949 4.52888 -34.1173 24.7848 -94.7089 85.9531
19366 2 19.5663 -71.5205 -19.1483 10.585 -46.1363 -5.71662 24.7753 0.627552 43.9712 -95.7835 101.002
22383 1 18.0511 -71.7224 -18.8528 9.14736 26.2867 -92.2985 -5.39083 -11.238 -58.5017 -344.859 151.846
24881 2 22.0942 -71.7488 -18.3504 68.9037 -7.19334 -45.8564 10.6468 -34.3823 1.22073 -93.3441 118.822
14824 1 21.1376 -71.7628 -19.6272 -121.196 22.6887 56.6417 -56.1227 22.5783 0.419058 -347.08 194.216
14766 2 21.6149 -70.5531 -20.7024 71.8812 -49.1391 14.6356 45.0394 -36.3202 -14.5209 -93.6919 147.21
12602 1 20.6244 -70.3272 -14.8534 12.4759 20.1036 -12.7763 -73.7843 57.9392 23.4319 -345.283 170.114
17416 1 22.6508 -71.8248 -16.7855 -113.711 -25.3399 65.5615 3.16747 125.066 -42.0622 -354.821 276.347
22655 2 18.9997 -67.6573 -18.2536 78.226 -88.9413 36.8525 -25.4934 -8.3355 -19.133 -99.2437 161.235
17476 1 17.6632 -67.5248 -17.3858 -165.286 163.91 -74.0369 79.1503 -0.0474794 40.5877 -333.879 332.256
22203 1 20.1964 -67.4654 -19.2822 -156.272 182.11 -74.7848 52.6519 36.8466 32.0085 -339.586 330.2
22283 2 21.4949 -67.6305 -18.3249 93.889 -106.002 51.5856 -0.514892 -17.2894 23.5942 -99.6911 189.361
24680 2 21.4985 -67.5661 -15.7375 77.3178 -92.3246 27.4855 42.2244 -20.142 36.7229 -101.602 182.81
27252 2 25.1698 -69.7005 -18.3499 44.472 -38.0136 -6.08307 -39.8587 5.28285 31.3673 -99.846 113.979
24674 1 25.1799 -68.3349 -17.4364 -119.475 158.826 -81.2653 88.3763 -13.1598 -135.634 -331.285 383.951
19503 1 25.5348 -70.3827 -19.7714 -38.2077 34.0264 3.75069 94.2762 -46.7675 -17.0942 -335.525 195.063
24874 2 26.924 -71.1476 -19.6647 30.3681 -17.5771 -26.9478 -40.3773 42.1831 6.75791 -98.6861 114.9
29779 2 26.9913 -71.2913 -15.4688 13.9373 -32.7959 46.7762 -38.3348 40.9896 6.40748 -90.9751 119.872
27191 2 24.203 -71.6065 -16.4315 97.5431 -16.1643 -31.3145 5.8664 -27.8219 8.67791 -87.6791 132.412
22376 2 24.4864 -71.4537 -20.4084 29.6087 -1.40352 -13.6475 -27.1537 4.51747 -20.4221 -96.0543 70.8221
27088 1 25.7234 -72.106 -16.1356 -134.808 16.6238 -11.589 20.5 -59.0945 2.80098 -362.368 176.68
24675 1 27.583 -72.2907 -18.7311 -44.4285 -9.71944 105.821 35.5491 -118.484 -27.8758 -342.913 258.462
17407 2 26.4788 -72.395 -17.539 26.2834 7.77775 -40.9402 -16.8817 43.8946 11.6265 -92.2527 103.238
24770 1 28.4419 -71.5218 -14.9146 46.365 15.54 -74.8746 74.9618 -3.26787 -0.121669 -347.177 169.711
27251 2 25.9945 -68.1589 -16.0571 65.529 -77.3426 60.7101 -65.7156 38.4063 66.2886 -101.025 224.3
17002 2 23.7254 -67.9352 -17.0712 80.9967 -93.3284 31.5343 0.292497 -32.1407 70.5935 -101.423 205.579
27184 1 27.0615 -67.2296 -15.252 -138.977 149.207 -134.567 196.351 -62.9567 -105.345 -325.893 492.588
22579 2 28.3793 -67.1119 -16.1448 88.6777 -82.6574 56.5585 -82.7007 4.31149 58.9583 -103.743 236.403
24883 2 25.9616 -67.326 -18.471 30.9384 -101.945 70.8159 -48.3287 8.37573 51.003 -103.697 198.919
7219 2 27.6427 -67.2823 -20.658 79.5642 -115.204 65.4991 -40.9794 0.406761 -20.5886 -99.0385 204.213
27103 2 34.6616 -71.9526 -15.0917 40.4085 1.69428 -20.9984 -22.0552 26.814 -55.6462 -102.441 125.69
27168 2 29.0176 -71.77 -18.3206 65.4899 -31.7083 -40.0224 -13.716 64.1836 10.8352 -96.933 153.623
27447 1 34.0008 -68.6776 -19.4913 -173.516 209.541 -85.8827 60.5843 49.401 122.697 -326.319 429.348
27295 2 30.693 -68.5481 -15.97 66.8549 -47.3467 32.8925 -72.461 -14.093 27.4339 -102.451 170.066
24876 2 34.4328 -69.9675 -18.5726 59.1989 -100.189 38.6412 5.16364 -23.3475 -65.4933 -105.218 192.702
27373 1 31.0796 -70.0683 -16.0835 -149.653 134.652 -46.7105 167.826 16.2284 -10.377 -331.326 384.407
24646 2 31.2861 -70.4524 -17.643 85.6354 -73.7971 0.576184 -60.6681 -0.802623 -19.6559 -101.71 176.905
27272 2 32.494 -70.3373 -15.3311 85.9467 -55.8918 18.5471 -72.0741 -7.95464 11.4274 -101.662 176.824
24585 2 29.7452 -70.9493 -15.674 34.6644 -52.2792 18.5891 -62.145 -7.05896 9.5533 -98.8434 135.754
17325 2 30.8282 -71.4438 -20.0141 85.715 -47.3712 -1.98256 -17.8868 20.1604 -30.7371 -95.2406 136.912
2404 1 30.6285 -71.6549 -18.4211 -169.273 83.7892 46.1758 73.4166 -82.6157 30.079 -339.417 308.702
7474 2 33.7787 -72.7201 -18.4048 -20.5256 21.9149 13.6655 22.2132 -4.30605 -37.203 -98.0681 84.8954
21970 2 31.3378 -73.0321 -17.8479 40.6273 33.2938 -58.7775 -43.7268 41.829 -32.7338 -95.3495 152.989
27449 2 33.7318 -69.5567 -20.8097 67.2251 -111.909 24.4836 -11.0237 -9.8421 -57.6635 -102.138 192.067
27259 2 29.1081 -69.6422 34.7931 77.8525 -101.753 29.8575 -11.4029 23.6719 -40.6956 -97.5941 181.607
7452 2 35.086 -67.4612 -19.5755 41.3532 -83.4406 55.4878 -35.9001 -19.0585 -68.5028 -104.536 191.236
22272 2 32.5678 -67.9154 -19.1861 101.419 -93.3661 38.31 -49.9364 -45.5079 -49.0656 -101.026 224.828
20146 2 30.276 -67.5339 -20.5783 101.971 -109.6 24.355 -15.6196 -1.82283 -36.8481 -98.339 197.941
27481 1 29.9456 -67.1657 -16.4415 -163.184 124.944 -109.424 91.0197 30.0682 -110.675 -330.001 367.058
7451 2 30.3616 -67.0265 -18.0089 71.3254 -95.3158 81.428 -39.9275 -28.7448 8.2236 -100.06 192.404
5234 1 -23.9128 -66.4091 -19.3421 32.6332 94.6078 -191.496 49.0255 59.4113 156.062 -330.362 398.536
27363 1 -23.7132 -66.1078 -16.3252 -63.5989 161.414 -212.214 83.43 25.1435 -33.6942 -331.55 363.788
2385 2 -24.0917 -65.7718 -17.9043 -25.2781 -57.5151 136.406 -33.0968 -12.4781 -35.073 -99.1408 199.592
24813 2 -24.8577 -65.5945 -15.2873 85.7696 -68.6049 61.638 -90.5884 -56.8861 43.4121 -103.1 246.311
24995 2 -22.3072 -65.3808 -15.8647 75.7335 -49.5366 60.3563 -5.65655 8.50105 -8.31827 -100.381 120.512
27468 2 -23.5318 -65.3813 -20.5677 -6.60822 -1.15985 54.1796 -28.963 -42.2445 -107.629 -101.488 214.513
2190 2 -19.8239 -62.7106 -16.541 21.5581 -80.8192 50.8813 -36.4328 33.5451 -113.705 -99.1535 245.942
27934 2 -21.7888 -63.3296 -20.7401 8.1908 -47.7123 60.0633 -16.335 -26.6213 -24.2932 -99.6162 115.814
27573 2 -22.3787 -61.8246 -16.5045 67.9904 -116.042 100.776 -49.5132 -31.1054 -95.2862 -99.9101 280.128
22574 1 -20.8262 -61.6337 -17.1624 -96.3252 234.419 -202.621 93.0841 -18.3894 183.267 -335.034 532.556
27371 2 -20.9533 -61.7606 -18.7226 18.1132 -116.077 130.948 -21.7364 7.02787 -43.0291 -98.5356 230.218
27543 1 -21.2889 -61.835 -20.2396 -88.2779 171.804 -193.495 20.4413 52.8591 35.6131 -335.533 345.715
202 2 -24.8001 -61.6118 -15.4003 112.283 -106.587 59.4417 -16.0547 -71.5832 -102.242 -102.485 294.341
27848 2 -24.9498 -61.93 -19.8923 69.6609 -69.0787 75.2272 -13.8562 -18.6643 -4.31175 -100.849 147.407
2367 1 -21.1657 -65.8432 -14.9114 -225.883 102.151 -47.2265 49.6605 -7.23097 10.4061 -327.703 297.992
12469 1 -14.4385 -66.8947 -16.4067 -62.5618 214.739 -178.111 25.6036 26.3689 13.3722 -332.716 356.199
29884 1 -19.0866 -63.4643 -15.3921 -122.024 89.3173 -5.82984 99.2784 3.02687 173.355 -330.532 391.614
17591 2 -15.2714 -65.6338 -15.8644 39.2937 -91.9245 25.6289 -35.7304 -15.1798 14.3624 -101.026 144.055
5219 2 -17.7971 -64.1706 -15.9241 62.1617 -40.8986 10.8692 -54.0737 -20.5362 -52.8802 -100.151 162.457
27639 1 -16.3019 -64.4632 -15.328 -144.968 86.7898 30.9096 60.0893 66.0853 79.1224 -331.876 294.276
4980 2 -16.955 -66.0962 -20.9512 46.9512 -96.6429 21.6173 -27.5606 15.4552 -117.421 -98.569 248.962
2598 2 -13.4659 -66.6245 -17.7248 38.4154 -119.939 118.102 36.4947 -33.1755 -21.1604 -96.7357 229.533
5000 2 -15.6228 -63.0156 -15.285 108.029 -52.382 -47.281 14.5785 -24.3861 -90.0305 -98.1877 227.327
14613 2 -7.77713 -67.3262 -15.4238 70.8767 -68.2242 78.3321 9.03864 -46.0109 -50.2227 -101.127 186.024
12676 1 -10.422 -66.5159 -20.0067 -220.553 188.918 -86.0014 -103.216 -79.1531 84.4756 -342.518 450.378
10162 2 -10.6432 -65.023 -19.5251 78.5216 -89.9089 51.9774 41.2888 38.592 -31.7039 -95.9037 192.874
9859 2 -8.45456 -64.0103 -18.3599 28.2067 -105.982 63.1114 -39.506 36.9858 -23.7189 -101.294 185.426
24766 2 -10.8346 -63.1376 -17.7433 46.8928 -93.7317 92.7116 -27.8496 -13.9838 0.898971 -95.4644 176.731
14775 1 -9.95573 -63.7362 -18.9197 -103.382 195.218 -146.338 40.6087 -47.7711 28.443 -339.767 343.59
9869 2 -9.67575 -62.6846 -20.0703 48.5455 -114.934 103.201 -46.1869 38.4694 -51.9843 -98.7061 239.988
5201 2 -12.0463 -62.1132 -15.6061 86.2967 -105.613 -6.60595 17.069 16.4246 -79.9871 -98.6178 220.247
10070 1 -10.9546 -61.8749 -16.7519 -108.297 241.168 -153.187 85.0409 -26.4036 63.3313 -337.995 419.104
5096 2 -9.55164 -61.7208 -15.9516 81.6509 -142.397 68.0235 -28.5387 24.1862 -10.7836 -100.433 227.766
5104 1 -8.70092 -61.895 34.6538 -57.3742 219.746 -236.147 56.9599 -103.444 100.45 -334.601 480.002
9866 1 -1.42959 -66.8714 -15.868 -128.382 34.5916 -19.8716 -102.982 -4.93119 -0.589951 -313.911 229.216
24880 1 -6.90676 -64.42 -18.1043 -46.7237 151.093 -126.431 47.493 -130.046 79.4394 -327.143 371.061
12408 2 -6.79894 -65.8099 -17.3429 -14.6533 -51.1679 66.0914 -11.2946 51.3244 -45.5815 -104.197 159.122
4986 2 -6.42213 -64.5395 -19.66 5.30491 -91.7477 77.0309 -37.0177 50.5988 -56.984 -103.529 207.505
7673 2 -6.13346 -63.0791 -17.6316 31.4705 -91.2969 80.6749 -16.8387 69.267 -4.85761 -102.812 197.101
12590 1 -2.717 -62.644 -16.8965 -201.895 131.924 -32.5689 -104.085 -13.7496 45.153 -332.751 350.38
10172 2 -3.46393 -63.7416 -15.9443 59.5505 -53.2526 16.3683 2.91531 18.3785 -13.7488 -105.857 106.414
29802 2 -5.40957 -62.1904 -19.8628 33.4211 -88.062 93.0183 16.8422 58.7546 -73.4539 -97.7173 230.095
7582 2 -1.73029 -63.4931 -17.9027 96.2969 -72.3902 33.2872 78.0619 -26.0019 -42.5957 -100.808 218.058
10072 1 -5.99791 -63.4827 -20.8004 -27.719 210.598 -230.665 52.41 -113.665 119.924 -333.842 486.305
15069 2 -3.7753 -61.8577 -17.8431 78.1285 -91.1613 53.6368 33.526 35.9661 -31.9264 -96.8253 188.211
12650 1 -5.30794 -61.828 -18.317 -73.9654 170.706 -167.123 -14.727 -133.646 52.4555 -338.638 392.205
15093 2 -1.88373 -61.6731 -15.9552 90.2059 -33.6311 -6.09327 76.6339 -29.7582 1.33604 -100.15 181.56
14785 1 2.90686 -66.976 -17.0692 -238.893 136.792 9.50211 -101.975 5.10303 148.627 -334.542 455.044
5100 2 -1.12895 -65.8804 -17.2063 57.2057 -40.1217 34.9693 66.5122 -10.9549 -26.4566 -106.673 153.409
17397 2 3.02562 -65.3603 -17.2288 67.8953 -63.3054 27.3528 50.8194 -29.5118 -98.0205 -99.1052 229.615
12393 2 -0.868613 -65.3546 -19.7353 44.8589 -55.1279 89.9651 132.18 1.02028 -53.2812 -99.4131 278.346
15074 1 -0.802581 -64.7365 -18.2699 -124.167 107.082 -148.458 -199.727 45.1192 115.108 -330.896 474.566
10100 2 0.675674 -64.3079 -17.8497 54.4313 -56.8164 55.1689 103.054 -42.0457 -82.1871 -102.243 264.361
17668 1 2.04586 -63.9893 -17.1067 -91.3809 89.1637 -125.531 -156.356 68.4779 158.263 -334.147 449.977
15176 2 2.80358 -62.9206 -17.9537 2.43901 -116.276 90.8566 124.396 -65.1396 -53.45 -100.529 316.434
22477 1 3.32221 -62.6848 -19.4915 -101.936 185.667 -159.906 -118.513 73.6192 139.34 -325.483 468.392
19794 2 1.63277 -63.589 -15.5303 55.4971 -46.0806 48.9418 77.0734 19.9072 -33.6692 -100.172 179.181
22458 2 4.1378 -63.9198 -20.1183 44.8373 -93.8329 63.5944 31.9968 -39.842 -94.1301 -102.511 237.902
17837 2 2.02066 -62.8414 -20.4511 42.7386 -127.646 66.8396 92.7584 -48.4707 -61.256 -105.444 278.99
17477 2 4.25828 -61.3546 -19.2629 46.9757 -112.19 86.1414 63.6442 -7.45666 6.95804 -105.456 213.46
22267 2 4.66245 -66.5114 -19.9 29.6405 -72.0391 72.1931 39.6157 -31.0937 -128.229 -93.9711 270.947
15068 2 6.56637 -66.4678 -17.9137 71.1257 -119.772 35.6648 46.7034 36.6829 -107.193 -94.8743 275.648
14859 1 4.88287 -65.2229 -20.8025 -60.1491 191.727 -177.402 -39.3355 73.6315 192.627 -338.885 488.82
17191 2 9.30535 -66.1528 -17.8428 155.277 -179.156 44.6114 49.0724 1.92819 -62.0278 -92.3586 325.361
12015 1 7.86102 -66.1203 -17.0358 -217.266 226.945 -61.504 -123.159 -83.3931 126.82 -346.61 516.732
16943 2 7.92523 -64.6668 -16.2563 80.3446 -75.831 55.5218 49.5177 38.1481 -20.5004 -94.2497 184.697
19999 2 7.7251 -62.6537 -19.5333 87.5922 -115.594 97.9896 11.0117 55.6283 -16.9429 -96.8715 232.409
22377 2 6.42147 -64.7489 -20.6331 52.4066 -114.67 86.4983 8.96251 -23.9757 -83.0908 -97.9139 239.688
19789 1 7.23837 -63.393 -20.8646 -174.723 259.423 -163.897 -0.0726266 8.82657 44.0842 -335.241 435.849
17282 1 10.8888 -65.8782 -18.2089 -259.514 360.506 -127.309 -14.0718 6.08454 102.456 -344.59 593.405
113 2 9.15323 -61.1925 -17.8354 48.4251 -109.422 106.59 0.204636 57.246 -11.0677 -96.9666 218.355
7167 1 13.6321 -67.0567 -18.0103 -47.8044 239.592 -160.505 -8.21823 17.64 67.5818 -332.681 377.526
19869 2 12.0509 -66.9537 -17.8924 57.6319 -142.051 58.8252 4.97387 -16.3886 -51.3974 -97.4317 221.174
22566 2 11.0352 -65.4152 -19.7464 109.969 -201.61 90.935 -26.6703 47.2936 -65.0962 -94.3695 336.259
22387 2 14.4159 -65.7134 -18.6245 31.3014 -145.664 66.2603 1.1054 5.78199 -22.9264 -104.111 201.013
12471 1 15.9277 -65.4416 -18.9567 -104.859 255.103 -148.347 10.5734 12.5966 64.382 -329.209 400.455
22253 2 16.379 -65.2358 -20.4682 47.3299 -113.072 70.9689 7.00391 -10.1122 -46.1103 -99.774 192.124
12406 2 11.3281 -64.5483 -17.4367 104.09 -132.751 65.2578 -19.112 -7.85658 -15.5742 -97.582 224.529
19909 1 12.2101 -63.4568 -16.7338 -159.837 204.495 -127.776 87.6354 32.7197 11.0665 -336.755 385.622
14970 2 13.7157 -63.3035 -17.2286 45.6646 -110.954 76.4741 -20.6697 -17.1308 -24.4085 -100.959 185.077
10179 1 15.345 -63.0468 -17.2628 -76.5175 218.553 -205.513 -34.7521 -14.8954 65.1305 -333.637 398.477
19865 2 15.5158 -63.3452 -15.6407 54.4695 -124.895 73.1875 30.9159 31.7559 27.222 -102.09 209.751
17288 2 16.2347 -64.1012 -18.0836 56.0956 -109.702 90.2506 18.6477 0.515178 -38.3151 -102.046 199.415
15155 2 12.2136 -63.9263 -15.173 90.2404 -111.74 51.6914 -15.7758 -31.1877 12.0456 -100.94 196.458
22471 2 16.6659 -66.7224 -18.3209 76.0649 -121.464 50.3678 -38.4011 1.3255 -30.9854 -101.559 204.723
15204 2 14.667 -62.0649 -20.5194 39.2961 -98.6542 74.1757 20.1636 23.0812 -66.0426 -98.0537 202.389
19585 1 11.8446 -65.1281 34.7214 -177.965 309.407 -164.041 60.6475 -152.317 158.057 -344.829 621.708
17180 2 13.0552 -66.2141 34.6495 26.3533 -114.439 58.8262 -28.5488 46.992 -28.8597 -95.9991 192.399
22497 2 11.5163 -61.9851 -16.7827 74.1789 -72.8606 52.9034 -68.0527 -2.58734 -8.60172 -96.622 181.88
22188 2 15.6738 -61.7042 -17.9869 33.002 -87.5092 104.632 13.2014 -1.26779 -55.1472 -96.6571 194.775
17474 1 15.5886 -61.1485 -19.5402 -84.891 155.506 -111.258 -38.0753 39.8781 138.029 -339.914 362.079
17497 1 14.5213 -67.056 -14.9019 -155.196 103.37 -25.2006 -54.6524 38.0693 84.1245 -330.997 291.001
17186 1 22.3113 -67.2209 -17.0784 -199.523 203.246 -84.3927 -42.7407 41.2929 -102.864 -331.491 414.06
2147 2 17.8533 -66.6614 -15.937 90.7583 -85.7709 35.8946 -11.9938 13.9935 20.9567 -102.25 163.781
27473 2 20.0615 -65.873 -19.6 65.8075 -81.4227 49.4017 -27.8316 -8.56674 -54.9277 -97.4177 176.424
25141 1 20.0731 -64.5166 -20.4894 -87.3412 125.161 -121.562 18.695 31.1371 142.53 -340.835 344.24
12874 2 19.8527 -62.7833 -16.9416 58.7527 -99.2375 111.513 30.612 20.0694 -22.2673 -100.143 203.93
27450 2 20.1628 -63.3212 -19.4609 22.7499 -72.0767 117.136 -3.59863 15.5472 -54.8729 -98.4659 191.438
25072 1 19.4185 -63.0186 -15.4105 -197.188 155.482 -107.905 -70.6332 30.614 -25.2986 -330.866 347.216
27469 1 20.2204 -62.1285 -18.3692 -16.4013 198.436 -322.152 -22.9624 -97.9826 102.526 -336.274 516.956
27203 2 18.8721 -64.4538 -15.0538 61.1345 -83.0772 41.0014 29.5072 -3.36629 17.0192 -102.943 147.695
25283 2 22.6917 -65.6385 -17.0194 86.2021 -76.9403 47.6209 4.42904 1.66934 49.3405 -103.234 170.823
27107 2 22.6519 -63.0046 -16.4215 81.1195 -70.3417 54.1495 -44.1487 40.0487 12.2949 -105.459 175.201
22550 1 22.2801 -62.1834 -15.122 -197.326 113.223 -63.705 62.9619 -45.8863 -34.4957 -319.572 307.536
22650 2 21.5702 -61.2207 -18.5207 -24.9894 -106.802 190.466 -35.8963 63.2736 -39.7885 -100.003 302.27
26983 2 18.2364 -61.9305 -14.9802 69.4982 -63.6992 69.323 27.0966 -14.8564 48.4461 -100.797 166.205
17382 2 25.1367 -66.697 -20.7617 -2.10287 -83.3961 104.038 -22.5045 17.0553 -7.55245 -100.241 170.488
27169 1 26.3717 -66.529 -19.8093 -36.8888 168.102 -168.225 75.01 8.26744 -1.1965 -333.001 321.375
24958 2 26.6035 -65.0145 -19.238 7.7466 -75.4589 102.87 -43.3522 -19.642 -1.44116 -99.2623 175.181
22296 2 24.327 -64.545 -15.4065 61.4272 -69.1087 35.0619 -16.7624 18.5547 42.0061 -110.411 146.501
27352 1 23.5245 -64.2901 -16.7917 -125.794 140.737 -139.345 49.7751 -36.8227 -79.7217 -323.793 324.656
27851 2 24.588 -64.056 -17.9253 5.02879 -87.026 139.485 -36.6787 -1.67456 21.2829 -102.979 210.554
5056 1 25.98 -63.6268 -18.7351 44.0382 213.108 -341.951 73.7656 31.8698 15.3197 -335.814 512.744
22677 2 25.5526 -62.8238 -20.0387 -18.3337 -123.476 187.849 -50.4791 -6.54962 -69.6035 -96.8451 312.333
7580 2 26.6827 -62.5563 -17.7443 20.1217 -125.458 162.526 -28.4379 -10.3654 7.47568 -100.219 255.185
27834 2 25.4603 -61.8699 -15.5145 45.4356 -73.9183 40.571 -62.3816 12.8249 6.14621 -111.992 161.151
29773 1 26.3074 -61.3624 -16.7908 -89.7877 172.78 -216.747 86.5965 6.20554 29.9254 -327.542 379.071
27285 2 26.4341 -65.8143 -14.8928 77.876 -63.4841 35.9516 -77.5456 32.6566 46.9382 -108.812 208.957
27339 1 31.1849 -67.0969 -19.3813 -178.875 184.762 -110.664 58.3832 73.6589 86.184 -336.871 401.082
2591 2 30.5623 -65.9802 -15.5239 92.9674 -50.1309 40.4107 -28.4014 -8.98677 67.4557 -104.167 178.974
2781 2 31.7265 -65.6154 -19.9357 47.3148 -36.2837 47.4866 -21.4352 -49.0364 -74.8554 -97.5328 180.014
24663 1 31.4323 -62.3077 -16.9153 -61.6656 261.2 -311.913 26.7643 109.842 94.5745 -332.961 559.321
19866 2 31.0213 -63.5948 -16.1677 62.9681 -89.8537 89.7599 -31.135 -30.5 -16.8731 -103.678 186.332
152 2 31.1583 -62.1763 -18.4904 7.88849 -149.223 195.548 -5.45407 -75.9615 -47.822 -97.4277 337.112
20279 2 33.7509 -64.0508 -20.9504 60.6858 -49.8861 12.2677 -46.9336 -57.8728 -76.6688 -101.047 208.584
22178 1 34.2128 -62.5417 -20.9643 -142.701 154.888 -61.0597 58.391 83.2752 54.7492 -329.231 333.098
25126 2 32.9964 -62.0707 -16.6124 45.7051 -118.599 153.078 5.72264 -45.2148 -64.6851 -101.172 273.771
5004 2 32.808 -61.8313 -20.6257 35.6467 -105.957 50.7202 -8.64798 -41.0846 -40.18 -102.714 180.402