ITEM: TIMESTEP
580000
ITEM: NUMBER OF ATOMS
29952
ITEM: BOX BOUNDS pp pp pp
-2.5141811457830563e+01 3.5127105799817414e+01
-7.8994279784934960e+01 8.8979574126934978e+01
-2.0959296319110130e+01 3.4827149464552392e+01
ITEM: ATOMS id type x y z v_StrAtomXX v_StrAtomYY v_StrAtomZZ v_StrAtomXY v_StrAtomXZ v_StrAtomYZ c_PEAtom v_VMS
27288 2 -23.7934 -73.0391 -18.0549 89.2479 -75.5469 31.4696 -7.78449 10.029 -70.4695 -98.5738 190.671
27268 1 -19.6893 -73.9632 -18.1595 -38.3145 63.4878 -114.723 86.9607 27.5754 67.6368 -335.406 250.345
4690 2 -19.8995 -74.4091 -19.6214 -3.17506 -34.1766 52.9029 -54.702 -3.72997 -32.4001 -98.5842 134.21
22469 2 -19.7201 -75.1108 -17.0203 3.75738 36.1143 26.3566 -13.5195 -43.0009 -51.509 -99.0473 121.99
27366 2 -23.9485 -75.5711 -15.1065 70.6918 -4.28788 -23.0169 -23.307 4.44962 -71.4233 -96.928 156.109
29950 2 -21.3007 -76.4123 -15.3776 44.9961 37.6828 -41.1291 -29.6841 -46.8095 -28.3992 -98.3694 135.932
24375 1 -19.9817 -76.4704 -16.3349 -37.555 -86.2681 -1.27263 3.25649 103.792 112.069 -335.453 274.745
9896 2 -20.2466 -77.5164 -17.6011 11.2892 -6.67105 36.4185 14.2318 -44.1846 -74.5357 -98.9634 156.642
9131 2 -24.5862 -77.9573 -20.5203 19.2081 -51.5311 23.7936 -3.6309 13.1395 -81.4048 -93.7476 160.584
22472 2 -24.9338 -72.508 -20.3186 14.3923 -53.5569 43.529 10.6297 -15.2893 -30.0601 -100.818 105.816
24669 2 -20.0801 -78.0768 -20.1019 23.7327 -44.895 46.2968 16.2113 7.52862 -74.0227 -96.2175 155.448
19874 1 35.0443 -72.7731 -18.7994 -59.5819 127.378 -88.9554 -41.7542 -4.69546 118.667 -333.013 298.077
2123 2 -20.9974 -73.0101 -17.7241 89.4115 -86.2147 51.9518 -62.5761 -11.2483 -42.0543 -99.2756 207.609
27103 2 34.9241 -73.1619 -15.0822 45.4299 -28.8161 10.5315 -15.5254 7.55572 -72.1447 -98.8684 143.695
9964 1 -17.1474 -72.7367 -16.9057 -167.334 87.5941 -73.259 72.0195 43.0415 27.204 -326.939 270.545
7486 2 -18.0794 -72.9349 -15.4982 48.9123 -41.8401 31.215 -34.25 -29.705 -25.1933 -104.864 122.53
2504 2 -13.8846 -73.2718 -19.787 -47.966 -19.7852 68.8999 -11.608 2.25496 -83.5265 -105.588 180.3
4890 2 -18.2191 -73.3305 -17.9643 44.1573 -54.8982 60.0434 -35.428 0.124147 -17.7448 -101.956 127.86
12515 2 -15.6925 -73.3766 -16.7591 88.8771 -34.272 24.3512 -52.2297 -35.021 -10.3316 -104.711 153.514
4707 1 -14.5583 -74.5136 -16.5492 -123.622 52.9082 -86.1677 48.8153 53.3158 0.0195994 -321.91 204.036
2517 2 -14.5016 -74.4613 -14.9259 79.79 -43.8388 64.7277 -25.2583 -14.2963 -10.5448 -104.975 128.489
7390 2 -15.1503 -75.6956 -17.4977 67.2382 -0.64233 -0.343496 8.88402 -19.0329 -22.9334 -106.695 86.5386
4836 2 -18.6534 -77.0344 -15.6526 38.8653 22.7217 8.24516 17.247 -45.5679 -34.8076 -102.714 107.053
7394 1 -14.9931 -77.2106 -18.0752 -147.166 66.9051 -16.3783 -89.3774 18.4461 151.622 -318.199 359.008
2580 2 -14.2575 -77.3562 -19.5161 62.5633 -57.3017 38.2058 27.5878 10.3154 -68.2222 -107.693 169.135
2365 1 -14.1337 -74.3893 -21.0079 35.1428 59.5227 -171.782 -49.1062 -33.057 182.686 -326.544 398.864
4797 2 -13.9912 -77.8457 -16.9401 99.4991 -31.4528 6.68612 33.1664 -9.08391 -84.8282 -109.42 196.834
4882 2 -15.6015 -74.8896 34.7699 57.0598 -73.9182 58.1889 14.5199 23.3509 -84.3874 -102.906 202.327
12288 2 -13.0934 -75.5795 -20.9949 -8.51128 -38.5267 85.1304 -18.1977 7.68804 -90.6734 -104.491 195.745
12392 2 -16.222 -78.1943 -18.1092 71.2303 -60.3025 14.509 53.3082 -6.64064 -69.2014 -106.803 189.951
4790 1 -18.1346 -78.1459 -14.6463 -123.28 22.3003 -18.6421 -73.9947 76.9614 39.5194 -326.714 236.198
17854 2 -13.0377 -74.4119 -16.9928 39.6197 -45.3027 46.8101 -35.4517 10.0994 -14.183 -108.731 112.045
12377 2 -10.7531 -73.575 -15.9689 84.6471 -60.826 33.8759 -6.42419 32.8778 3.95845 -104.729 140.599
7478 1 -11.5377 -73.9328 -17.3607 -130.924 92.7422 -64.5386 76.7853 -84.5612 85.8552 -322.529 317.551
4961 2 -10.7529 -75.11 -18.0889 93.8562 -45.2142 4.5099 -35.5834 40.0732 -44.7112 -107.59 171.789
17867 2 -7.66896 -76.3257 -16.5868 128.256 -26.0933 -32.7078 63.497 -24.4297 -2.02638 -111.539 196.943
7009 1 -9.01302 -76.7741 -15.69 -169.998 34.3579 -14.3644 -31.9927 51.7841 -22.869 -310.128 216.479
4789 1 -10.5073 -76.6822 -18.3156 -205.155 109.216 -7.80136 62.1405 -59.5835 61.3914 -312.05 330.57
12299 2 -10.24 -77.1012 -16.7138 87.1879 -26.249 -11.527 -4.56872 3.33398 -16.5255 -114.284 111.04
2210 1 -12.9111 -77.0995 -20.3766 -78.2143 138.077 -155.51 58.6899 -23.0075 93.9657 -322.095 328.458
2010 2 -11.7611 -77.0235 -19.2451 75.5065 -68.3136 33.7404 -42.2526 26.4176 -42.0892 -109.787 170.839
29640 2 -9.27695 -77.5533 -18.8973 103.4 -67.7728 44.4386 8.87951 -11.0364 -26.7495 -111.597 159.476
14780 2 -11.7672 -72.7317 -18.3496 24.1142 -15.3794 46.9601 -16.7773 17.4316 -111.926 -102.408 205.724
7377 2 -9.35158 -75.4275 -14.8779 66.383 -40.8815 29.3072 31.6527 -21.4396 33.8103 -108.281 129.296
17001 2 -8.51154 -72.9191 -14.8115 131.631 -48.8207 -0.722604 88.3111 -33.7358 37.9651 -102.973 239.441
7600 1 -5.20658 -73.0124 -16.3703 -126.327 61.2289 -119.141 -144.413 3.08101 35.8937 -315.814 316.765
15088 1 -2.07666 -72.802 -16.1348 -117.905 47.2703 -180.85 -28.4289 18.524 82.8336 -306.909 256.282
12226 2 -3.59649 -73.2145 -16.5087 68.3247 -23.2968 77.966 47.4805 21.5707 -32.3014 -112.33 143.736
19881 2 -4.4822 -73.4258 -19.5711 28.6282 -4.97465 57.0131 59.3414 29.272 -32.6458 -109.845 138.639
9887 2 -1.6329 -74.059 -19.9762 55.3001 -4.02023 42.8633 15.4023 37.409 -22.7199 -110.166 96.9247
12203 2 -5.75463 -74.5518 -16.3854 84.8746 9.27717 2.62657 98.6655 -17.7498 5.75205 -108.375 191.079
15256 1 -5.36377 -74.6466 -19.992 -10.1042 -4.90916 -167.753 -121.601 -24.5872 105.247 -318.266 324.197
12597 2 -6.14451 -75.1337 -18.6628 45.9217 -4.53257 56.9281 97.576 -30.079 -51.7935 -107.97 206.27
9782 1 -6.24441 -75.8415 -17.1784 -234.942 4.88904 -7.68555 -186.661 48.5258 47.1283 -315.234 415.832
12297 2 -4.70793 -76.0267 -20.5425 33.6318 -20.3883 59.783 48.1562 7.49053 -59.222 -109.279 150.539
12395 2 -1.47801 -76.653 -20.2001 91.1142 -22.8599 28.2791 29.4731 1.28557 -4.053 -109.03 111.521
17301 2 -5.19307 -77.109 -17.1137 122.506 -26.3986 38.7717 62.0856 14.1865 -42.1238 -112.276 184.95
8075 2 -1.68616 -73.9594 -15.0628 49.3512 23.1261 59.504 11.2581 -13.8342 -47.5524 -114.511 93.7826
14685 2 -3.17699 -78.2 -16.0049 123.623 -76.9295 73.9236 87.0229 54.2008 -11.5627 -115.964 254.278
7385 2 -3.22081 -78.0817 -18.7978 123.758 -70.8322 75.8891 64.7946 -20.5573 -22.8227 -110.754 215.099
14894 1 -2.33499 -77.9973 -20.1785 -242.095 107.229 -106.41 -53.59 47.6791 -8.91711 -316.616 329.718
9818 1 -4.03754 -78.2655 -17.4009 -255.645 126.868 -186.26 -162.612 -42.1588 60.9277 -309.038 469.453
7530 2 -5.94261 -72.4238 -15.1171 103.725 -102.811 27.6729 52.2293 -36.5796 -35.9559 -107.512 220.93
7679 2 -5.46248 -72.1645 -17.7388 23.1346 -43.4784 76.7562 52.6063 12.9964 -63.9469 -108.864 178.777
9958 2 -5.87713 -78.3457 34.6115 62.1122 -37.281 53.8954 70.9703 -16.713 -69.2643 -107.868 198.673
12284 2 -0.95635 -72.5449 -17.291 35.5099 -29.6256 78.7419 -6.33502 -3.9966 -26.6546 -113.954 105.959
9622 2 1.44352 -73.4849 -16.8299 55.755 -46.8255 50.9758 9.43476 50.9502 -24.8596 -108.391 141.295
5086 2 3.40195 -74.4526 -20.2786 91.1006 -95.6295 48.0308 36.1426 -67.8311 0.0826828 -96.8355 215.413
9891 1 1.7602 -74.3868 -15.5115 -220.032 83.5817 -54.3004 -37.9986 -87.7574 -4.20847 -318.2 311.157
12407 2 3.2474 -75.0442 -15.3146 190.835 -75.2495 -64.5885 17.6148 63.729 1.73537 -104.115 284.96
10066 2 0.784979 -75.0785 -20.5017 20.6896 -38.2321 49.1928 -0.583048 -48.2506 1.7822 -107.239 113.836
12304 1 -0.728697 -75.3204 -19.7942 -105.627 6.75481 -65.0688 -40.4307 -32.3889 22.7669 -314.622 139.006
12211 2 -0.372798 -75.5588 -18.2678 28.2403 -20.3761 63.4138 27.0141 0.103307 -11.9635 -112.291 89.0473
14804 2 0.935461 -75.6768 -16.0031 77.7779 -25.6745 61.9761 14.4163 -4.99153 -23.8276 -112.051 108.254
24772 1 2.33643 -75.6009 -20.1097 -97.2828 161.728 -159.241 -4.41739 156.201 13.0085 -328.849 400.919
24679 2 2.05078 -76.0171 -18.5313 49.2158 -76.6538 71.7313 -13.9784 8.21256 -19.545 -106.579 145.323
22239 1 4.379 -76.1304 -15.3054 -428.033 156.104 164.208 -21.676 -131.569 -12.4661 -328.605 632.315
12565 1 0.802916 -76.2256 -17.4807 -61.0737 55.0508 -160.514 -1.30161 -19.876 40.9154 -311.449 202.813
14995 2 4.48572 -76.6591 -16.7781 200.025 -124.356 -20.087 11.1345 64.6673 8.70543 -100.699 308.897
12191 2 0.718676 -77.782 -17.4159 61.6919 -50.7236 83.1197 7.02631 6.41968 -9.36437 -111.864 126.649
7218 2 2.60998 -76.7974 -21.03 63.0263 -90.0455 102.617 9.93404 -87.0671 15.6639 -102.149 234.164
12410 1 0.602199 -72.4149 -17.7491 -27.1216 51.106 -120.026 -4.78457 -29.6803 37.7525 -313.499 170.31
9616 1 4.61108 -78.0072 -17.626 -382.555 350.395 -106.778 -4.01568 -65.9675 -17.2683 -336.229 652.024
15080 2 0.804973 -72.2111 -19.385 23.8108 -58.2036 41.1239 6.85541 -22.5465 -22.4945 -108.627 107.843
19497 2 6.61721 -73.5258 -16.0541 150.42 -73.2332 -79.0134 13.7237 32.9829 -10.2276 -97.5733 235.562
14682 2 9.16109 -74.0745 -20.2891 62.0301 -132.198 82.6594 -16.3938 1.29378 -40.6276 -88.6971 218.906
17283 1 10.2486 -74.8443 -19.489 -83.5082 251.604 -216.732 -16.6368 2.81758 107.468 -351.504 458.471
17390 1 7.16401 -74.9209 -15.3476 -376.204 131.269 195.959 -40.7257 -34.5199 12.3275 -335.834 550.952
17412 2 9.75886 -75.1971 -18.0053 65.5865 -125.753 76.3542 -23.6394 -15.4234 -16.0692 -94.0498 204.821
17291 2 10.4071 -75.4437 -15.409 86.1906 -56.1207 -47.0127 -46.3258 -0.996033 6.80732 -100.447 160.061
14705 2 8.0149 -75.9289 -16.3122 171.224 -116.014 -64.0754 7.30613 -10.3831 0.109134 -97.7974 266.023
19693 1 9.55301 -76.0835 -16.715 -230.418 205.361 11.3717 81.2799 36.618 -13.9623 -338.777 409.177
19763 2 10.2671 -77.5083 -17.0964 93.9304 -100.424 7.66778 -58.0013 20.3321 4.90063 -97.8016 199.635
4518 2 5.15733 -77.7523 -19.0881 181.609 -232.908 117.448 -6.44436 -4.41463 -17.425 -93.7042 387.865
14799 1 6.01769 -78.1639 -20.3684 -357.035 500.315 -203.132 9.55115 -2.90036 28.4936 -348.568 793.424
14621 2 7.05131 -72.4361 -20.3068 95.292 -147.565 47.2769 -7.63167 -12.9504 -2.80432 -86.9726 224.334
14688 2 5.56372 -72.0953 -17.9588 114.196 -137.988 48.905 37.0154 38.2974 -49.6956 -92.4375 259.449
14701 1 5.99734 -72.0705 -16.387 -266.096 230.402 2.26781 -60.4171 -80.1931 86.4992 -341.298 487.829
22085 2 9.94465 -78.5162 -20.9601 80.2013 -141.687 34.4344 -21.2077 106.801 -72.8363 -93.4633 304.398
17111 2 10.696 -72.9729 -15.0124 73.1917 -35.6164 -30.0448 16.5053 3.36646 35.0675 -99.8623 125.716
4700 2 5.7639 -75.6036 -14.791 203.784 -65.0229 -95.3067 28.8725 46.8159 -11.6064 -100.825 301.322
29766 2 10.6776 -76.2657 -20.169 27.9143 -109.151 76.5444 20.4962 40.7295 -74.5494 -93.3411 225.227
22168 1 13.406 -72.7225 -16.888 -53.6793 51.218 -78.5365 -73.6471 54.8097 -23.2339 -347.298 202.811
20053 1 13.1152 -73.4963 -19.7644 -31.9228 236.771 -255.33 -32.0346 54.682 91.0557 -347.628 468.036
17471 2 11.6305 -74.0056 -19.3201 -0.517602 -115.761 120.58 30.0228 -23.8371 -58.9123 -92.5534 238.164
19680 2 13.1895 -74.2858 -16.5197 32.1204 -13.6584 -5.84659 8.50593 -20.4549 -2.41477 -94.8772 57.3486
17321 2 13.8977 -74.6809 -20.4483 72.5035 -133.223 88.2848 -10.4434 -29.5184 -85.8832 -94.7694 266.248
19767 1 13.5004 -75.8171 -16.4266 -121.685 30.6144 45.2386 77.3881 14.7421 75.5567 -342.042 247.753
19679 2 15.0964 -75.9353 -16.7823 84.9608 -20.6488 -10.385 -38.5037 -43.78 -40.3506 -93.6153 158.924
19221 2 13.3348 -76.6743 -15.0575 62.0014 -39.6904 -39.6452 -60.7369 14.4409 -51.7072 -99.3698 173.35
12450 2 12.6324 -76.8697 -17.3895 46.4828 -75.8046 13.9075 -65.5394 8.08069 -36.2637 -98.3435 170.467
14798 1 16.4403 -76.8291 -16.857 -138.827 97.0275 -43.6536 55.2195 99.5858 88.1953 -343.298 323.223
19696 1 11.7223 -78.2075 -17.3094 -106.401 136.056 -64.1942 143.971 -55.6083 20.42 -336.488 350.776
17182 2 13.743 -72.8292 -18.4712 3.40679 -70.0197 112.002 15.8249 -28.9418 -11.5228 -91.9656 169.766
17576 2 12.7428 -72.4709 -20.9254 10.5809 -110.577 83.9782 8.68678 -7.64708 -10.3299 -95.8817 172.282
19505 2 12.5266 -78.2135 35.0754 97.3259 -54.9198 0.300424 -43.7676 36.9731 -113.724 -92.1486 257.815
19793 2 16.9867 -76.5863 -18.3047 42.3316 -35.1235 22.0564 -13.5095 -36.0771 -91.744 -96.3534 185.858
19712 2 17.9526 -72.5665 -17.4619 32.9187 -29.9809 36.9307 -32.1276 -22.0288 41.7402 -93.235 118.338
19366 2 19.7773 -72.6733 -19.2428 55.4455 -45.6494 3.92179 -3.70826 11.5982 28.5142 -96.3411 102.714
22383 1 18.1875 -72.953 -18.9876 -73.5733 93.1996 -77.2955 51.8276 -44.0051 -84.6081 -345.423 252.569
24881 2 22.231 -72.9151 -18.38 52.5173 -41.2676 -9.17718 14.6733 -47.226 10.3753 -97.2467 120.314
14824 1 21.2813 -73.0882 -19.6911 -178.341 78.4411 30.9598 -25.5805 14.1039 30.5122 -340.263 247.693
24413 2 21.1141 -74.6212 -20.2193 93.9989 -44.9403 -33.7046 -2.75564 16.3884 -39.9035 -98.1051 153.214
12186 2 17.896 -74.446 -19.3342 34.8351 -62.1226 26.0549 -19.803 23.0042 -27.4292 -96.6515 116.823
14986 2 22.2686 -74.6171 -16.4339 -14.1104 -21.7137 40.003 -14.4794 -36.7229 1.97844 -93.1057 89.9107
17209 1 17.7969 -76.0771 -19.606 -65.8968 76.7765 -23.0431 21.3945 -25.1868 224.177 -338.248 412.457
29574 2 19.3253 -76.4727 -19.9136 69.8361 -35.199 -24.0336 -31.545 22.6944 -105.889 -99.3769 219.436
14715 1 22.431 -76.0662 -17.0646 5.14783 -17.9152 -12.5318 37.2523 61.8565 26.0574 -344.911 134.594
15197 2 17.4426 -76.3113 -15.6865 30.4897 -25.6615 41.2493 8.70956 -24.3207 -0.285225 -93.5485 76.6498
22087 2 21.1844 -77.0332 -17.4206 37.974 -2.13683 -26.662 -12.4088 -26.2377 -34.1504 -97.1854 96.021
19602 2 17.0236 -76.3163 -20.9929 23.2646 -73.2952 6.74648 -18.7679 30.505 -117.861 -98.8772 231.352
19604 2 17.2071 -72.2558 -20.0735 52.6179 -48.1815 58.4099 -39.4005 60.0418 32.9432 -94.293 171.773
17416 1 22.8243 -73.1013 -16.7694 -59.6164 69.0534 -54.4609 10.0206 88.6325 4.81256 -346.637 199.642
27191 2 24.4374 -73.0736 -16.5678 59.1381 -58.5516 43.4636 4.48111 -12.3386 -14.318 -92.3133 115.688
22376 2 24.6841 -72.8667 -20.4262 25.9674 -27.2027 -2.42902 -5.05254 -26.2083 -22.8933 -102.989 76.3747
27088 1 25.8991 -73.6175 -16.2691 -101.967 126.966 -183.885 -7.46237 -94.0171 56.088 -354.135 337.634
24675 1 27.7322 -73.4353 -18.961 -110.283 118.888 -25.3612 2.58037 -87.9333 25.8525 -338.864 255.912
17407 2 26.7195 -73.6577 -17.7112 27.3944 -48.919 47.6765 4.03083 43.8332 -15.1838 -95.1345 119.53
19546 2 27.9369 -74.978 -19.502 31.2538 1.61804 -24.3621 -24.2627 17.0553 -20.0076 -94.2841 78.5034
17262 2 23.3462 -75.779 -18.3877 22.5282 14.0335 -50.8036 3.17793 -37.1656 -41.0386 -97.9421 118.547
24650 1 24.3351 -76.1965 -19.556 -59.4373 -29.9402 92.2088 -33.4284 97.9841 117.655 -338.295 305.085
24950 1 27.4119 -76.4351 -18.9389 -63.6184 -42.4396 22.9709 80.5932 -17.4676 75.9732 -352.538 209.355
4712 2 25.8583 -76.3172 -19.0637 23.7676 13.9088 -45.5614 1.9553 -21.3055 -56.1475 -95.3882 122.683
29841 2 27.9853 -76.8566 -17.4811 24.7892 3.85083 26.5731 -50.3306 49.798 -44.5979 -86.9928 146.577
22254 2 23.4885 -76.9856 -16.2391 -11.9656 -37.5459 55.6035 -18.7903 6.4105 -24.2959 -91.5024 99.5076
19659 1 27.5622 -77.5277 -16.0524 -46.2798 33.266 -69.1953 76.2385 -120.725 33.1294 -363.12 270.423
27455 2 27.9244 -77.4882 -20.1076 41.9506 14.5937 -20.1206 -73.7491 -14.595 -40.288 -91.4472 157.253
24956 2 23.8342 -77.7164 -19.7123 24.931 -21.5696 -37.9639 -10.0597 -51.2118 -58.9125 -98.7779 147.57
24739 2 24.2247 -75.3043 34.9093 17.9661 6.17005 -7.43304 10.2759 -45.0485 -50.2103 -98.5325 120.22
29779 2 27.0654 -72.7291 -15.4225 17.5668 -77.9654 109.171 -14.9817 56.0949 -35.1271 -92.8905 200.21
22185 2 25.8525 -75.011 -15.6984 41.8767 -35.2264 105.249 12.3952 53.5094 -29.1241 -86.7757 162.611
24874 2 27.0442 -72.2931 -19.8386 48.932 -53.8252 11.8804 -12.9049 20.7302 -2.50797 -103.114 99.6608
24770 1 28.6096 -72.8598 -14.8368 25.2891 126.755 -162.749 20.4626 -0.796743 85.1047 -342.812 296.174
22361 2 26.0394 -78.0434 -16.3084 47.9694 -42.4264 18.0511 -28.9513 47.7057 -42.3934 -87.1993 145.243
29846 1 24.4657 -78.2161 -16.1833 -37.4757 96.0123 -86.2714 57.3336 -59.0921 81.7522 -355.192 259.039
17400 2 28.9935 -74.4155 -14.8749 -12.3717 -13.7353 49.6658 -33.7903 -4.7193 -50.6994 -92.1129 123.039
22623 1 34.8423 -74.7487 -15.0198 -32.2932 3.77264 -9.93985 22.3133 -36.6766 190.374 -338.944 339.485
27168 2 29.1516 -73.0239 -18.4394 95.5749 -96.6948 32.1867 -12.4531 48.4179 -11.1466 -96.6883 191.491
2404 1 30.7619 -72.9323 -18.5982 -207.737 192.011 -39.5074 87.5992 -57.4505 34.062 -340.702 396.552
7474 2 34.014 -74.0099 -18.5679 -37.8008 -5.12971 35.2733 8.65275 -9.4528 -31.5589 -98.3943 86.6048
21970 2 31.6164 -74.0861 -17.792 51.6193 -24.347 0.330804 -57.2413 15.2429 -27.232 -95.0499 131.365
29860 1 32.9388 -74.9128 -17.6341 89.7033 -46.981 -58.8242 39.5985 -28.5562 73.246 -342.866 209.014
2129 2 33.722 -75.0142 -16.2153 -40.2651 4.25946 32.3131 -7.94266 19.5546 -75.8635 -97.1898 150.402
22639 2 32.547 -76.4149 -17.9465 -71.7981 39.8139 49.429 1.98458 10.4548 -24.1428 -93.8813 125.344
29583 1 32.6654 -78.028 -17.5549 149.514 1.81557 -138.141 -60.7939 -2.77849 56.6543 -345.382 287.774
24690 2 33.1023 -78.0861 -20.5972 -40.0104 -51.8983 31.0544 32.9392 4.16986 -63.3515 -97.2359 146.232
2154 2 32.6848 -78.2627 -15.997 -56.3762 -11.5257 66.6578 25.9877 7.2755 -21.1494 -95.8819 123.116
19704 2 30.4298 -77.6422 -20.816 40.8478 -35.2319 -4.53755 -7.13789 29.0174 -31.8104 -92.2435 100.547
17325 2 30.9377 -72.7811 -20.2015 121.976 -88.3009 11.2647 -27.9161 21.0808 -20.9084 -96.8921 195.386
27348 2 34.0214 -78.4644 -18.3231 -41.0856 -12.6384 51.7078 -4.89593 1.33207 -44.1176 -94.7787 112.679
22334 1 28.9936 -78.2831 34.7385 -91.7777 32.0749 -9.00335 108.157 -25.8023 103.004 -349.642 284.358
2569 1 -22.3787 -72.184 -17.9395 -244.216 253.743 -115.071 113.734 4.57227 119.682 -334.758 531.2
29852 2 -22.6759 -71.065 -16.8145 84.4478 -127.008 71.9841 -39.8805 34.2306 -25.4819 -101.734 229.059
29946 2 -22.2976 -71.4953 -19.4287 112.707 -145.75 64.7196 -69.189 -14.877 -76.593 -100.979 298.873
2 1 -23.4339 -70.4315 -15.5672 -153.546 126.903 -93.7446 58.2693 -67.4353 3.69371 -332.525 298.874
7573 1 -22.2569 -70.0979 -20.2272 -191.67 282.517 -144.081 111.015 78.3122 168.832 -331.194 587.738
25066 2 -20.741 -69.8884 -20.5949 113.662 -133.923 73.3144 -46.7354 -20.3202 -92.1421 -99.5901 293.596
29384 2 -23.3835 -68.8573 -15.766 54.1729 -66.0586 53.5925 -34.4277 33.371 31.3211 -100.472 155.647
22302 2 -22.7877 -68.905 -19.3 25.7959 -94.4271 96.7422 -28.5398 -16.4994 -51.7717 -100.147 198.286
19770 2 -20.3496 -68.4081 -15.4476 71.7343 -27.7767 -1.4616 -31.7076 1.98572 15.7721 -102.574 108.4
5234 1 -23.9957 -67.8417 -19.3401 25.459 77.9456 -212.092 25.6718 30.9314 115.248 -336.083 341.097
27363 1 -23.647 -67.3554 -16.3314 -79.3422 90.4811 -158.209 45.0698 -27.5491 -49.8705 -340.155 253.545
2385 2 -23.9889 -67.1299 -17.8837 -14.5617 -29.4232 133.697 -10.4968 7.3015 -11.7919 -95.3901 159.099
24813 2 -24.7683 -66.8033 -15.2744 77.1364 -40.1263 40.9271 -53.461 -30.7315 27.525 -99.0823 156.512
24995 2 -22.2008 -66.6712 -16.0154 56.9078 -16.6973 21.9451 -8.50721 21.0476 -19.5095 -97.8689 82.1866
27468 2 -23.6337 -66.7899 -20.5751 -0.586187 15.4557 38.9015 -7.24475 -41.2653 -68.8633 -99.7874 143.79
12586 2 -25.0417 -70.7358 -15.4196 85.4298 -62.4552 36.1844 -11.9225 -18.1909 2.45018 -99.9844 135.829
7452 2 34.9735 -68.7975 -19.5001 41.5883 -80.3004 54.2086 -28.2292 -13.8008 -51.9061 -102.733 166.13
4917 2 -19.5728 -72.2032 -20.7639 20.9513 -75.6235 63.4007 -52.7253 -0.112288 -63.2239 -100.221 188.573
29806 2 -17.0496 -71.1762 -17.2471 54.2686 -68.7473 61.1831 -3.71093 -41.2766 -34.8685 -104.121 157.58
9873 2 -15.94 -69.6898 -20.4647 65.7171 -123.401 65.0985 -10.0556 -18.8487 -86.1263 -102.757 243.458
29678 1 -17.1626 -69.5745 -17.3207 -76.9857 201.953 -188.92 -17.7595 113.432 47.8849 -329.44 409.859
7435 2 -13.8568 -69.4359 -15.5943 28.2429 -68.741 80.2982 -11.2543 2.74952 -8.75546 -101.819 133.405
209 2 -17.911 -69.1317 -15.9868 47.66 -49.0763 38.0854 -15.915 -67.4608 20.2941 -104.051 155.472
5099 2 -17.7774 -69.1039 -18.7569 30.1592 -137.368 141.186 5.69647 -27.5281 -55.1625 -98.973 265.503
2380 1 -17.3466 -68.941 -20.2796 -122.442 275.978 -171.158 -30.8834 -6.68271 190.999 -335.154 541.256
4915 2 -15.7352 -68.8834 -17.2978 33.0791 -119.627 98.7198 -5.7842 -56.1578 -15.8741 -102.545 219.018
9790 2 -13.6405 -68.8058 -20.3122 16.4353 -112.993 65.4774 -2.08811 -15.4021 -88.1814 -103.924 222.613
12469 1 -14.4733 -68.2424 -16.5917 -54.7198 168.445 -177.273 18.909 67.6277 -21.5162 -333.501 329.171
17591 2 -15.1336 -66.9794 -15.792 40.2116 -22.8096 24.8814 -17.5251 -38.6075 27.6786 -100.08 104.556
2598 2 -13.358 -68.1355 -17.7547 27.9142 -102.61 112.309 25.024 -46.6252 -5.17288 -98.7961 208.939
4980 2 -17.0235 -67.4412 -20.8488 37.2456 -90.7991 66.4732 -26.6408 0.0933467 -120.075 -98.2802 257.634
2402 1 -19.1177 -69.3273 -14.9183 -118.554 43.9298 -25.783 63.8764 97.0764 -35.4377 -323.414 253.404
5198 1 -12.857 -72.0637 -19.3115 94.8325 13.6607 -136.881 15.8973 24.0603 201.21 -325.93 406.722
2600 2 -13.3765 -70.7191 -18.6764 -25.5436 -48.1924 84.279 -13.2421 -34.5773 -70.4952 -104.065 184.616
24490 2 -12.2891 -71.7066 -20.7774 -13.7378 -52.0877 82.5482 12.9135 -45.4385 -91.3326 -103.152 214.833
12286 2 -7.72428 -70.9865 -20.366 84.7805 -78.7871 45.2342 -7.30309 66.8394 -53.4533 -102.378 209.724
4981 1 -12.902 -69.1425 -18.9243 -66.2522 214.841 -169.287 -63.1141 77.6952 104.035 -330.991 425.585
10157 2 -7.55033 -69.6403 -17.871 71.9168 -89.1602 88.1078 -11.1369 22.7463 -57.4001 -101.692 201.555
17593 1 -7.57498 -69.6125 -19.4879 -154.748 182.418 -119.716 47.4793 -117.943 53.0077 -327.786 400.026
27309 2 -11.3039 -68.9939 -19.1743 87.8429 -113.655 42.9474 70.076 -2.06269 -53.6695 -98.9283 238.655
14613 2 -7.67671 -68.5007 -15.432 62.776 -92.9514 107.356 -5.92561 -52.2528 -41.6629 -99.6328 216.066
9788 2 -8.86519 -68.7889 -19.9435 116.724 -107.172 50.8607 -5.58524 48.901 -27.3735 -101.158 221.893
12676 1 -10.337 -68.1631 -20.1562 -239.333 221.714 -108.579 -86.7364 -39.4244 78.2287 -335.346 463.647
10162 2 -10.3195 -66.6513 -19.6317 84.997 -82.4229 55.1752 41.6697 22.7498 -19.4262 -98.4318 178.381
12399 1 -4.48303 -71.9167 -18.9299 -81.7396 66.8756 -165.297 -60.7721 -56.0991 90.3378 -312.557 294.092
5064 2 -2.31561 -71.5386 -15.2115 20.4522 -20.4033 73.1969 31.8453 12.0658 -26.1322 -114.394 110.154
10174 2 -1.85538 -71.3703 -20.3001 48.0651 -85.0372 72.6625 10.6842 19.7514 -49.1565 -111.066 174.233
7416 2 -3.18881 -71.2364 -18.3374 66.6604 -64.8097 84.3668 17.483 24.4343 -33.8584 -113.302 161.471
7230 2 -4.70308 -70.9035 -20.164 52.8261 -73.9794 63.0746 -7.1364 54.5017 -47.0219 -109.966 182.158
7695 1 -2.1108 -70.2347 -19.0614 -109.304 102.814 -159.113 -36.7072 -57.2107 60.471 -311.064 287.875
15268 1 -4.66844 -69.2252 -20.4085 -119.916 121.811 -150.73 12.0439 -91.588 133.037 -318.618 381.479
2661 2 -3.25679 -69.1883 -19.5994 71.1813 -48.5725 79.7038 11.8173 40.3121 -53.0284 -109.283 170.776
9522 2 -5.43918 -69.2453 -16.2747 64.8584 -53.3207 72.7422 1.85605 14.8734 -32.3189 -107.314 136.995
9912 2 -6.16061 -68.9051 -19.8921 32.9437 -62.8414 68.9459 -26.8778 58.305 -39.4417 -107.117 175.932
5116 1 -4.14117 -68.8641 -15.4344 -139.794 16.9025 -105.368 -47.3152 -37.7409 7.53377 -316.298 177.494
12405 2 -2.72381 -68.8592 -16.1877 -1.22991 -15.5642 58.1763 29.3787 9.32418 -5.48682 -112.139 86.7559
2403 1 -6.85596 -68.6738 -16.7958 -94.3338 161.179 -188.936 31.5037 -16.4727 108.501 -328.599 370.834
12408 2 -6.59753 -67.2138 -17.4472 36.0386 -48.4684 66.7193 -14.1978 48.6077 -51.6876 -103.769 162.429
9866 1 -1.35004 -68.1172 -15.9518 -67.6533 29.8563 -94.813 -99.9862 1.19349 22.6876 -311.354 210.794
7400 2 -4.30311 -67.3223 -14.9478 73.8112 -34.9995 49.8997 10.3485 0.982268 -3.79045 -106.72 100.881
5100 2 -1.33885 -67.1025 -17.2104 33.2435 -20.7717 52.9458 53.2903 6.36292 -21.2653 -109.691 119.865
14813 2 1.12438 -70.9866 -17.2562 63.2514 -25.8116 45.4175 49.5512 36.7816 -4.16867 -106.999 134.68
20327 2 -0.742743 -69.6975 -18.4903 8.03585 -25.6788 67.5559 37.3286 25.7098 -3.13551 -110.609 113.485
17378 1 0.580159 -69.5472 -17.49 -93.3161 38.275 -62.0623 -133.977 -42.4985 -7.92562 -319.206 271.361
14784 2 -0.161388 -69.0919 -16.1429 51.4818 -22.8423 45.9094 53.1456 14.1272 -13.5682 -110.447 121.513
19896 2 4.48285 -68.6733 -17.5265 147.5 -113.238 17.0531 28.2418 -10.452 -71.6689 -94.9691 262.904
19860 2 2.80778 -68.5498 -15.4514 78.8216 -83.1421 40.9971 24.7382 33.217 -49.0805 -100.75 184.145
19966 2 1.84878 -68.5495 -17.8241 101.39 -47.9881 4.74142 84.0028 0.648213 -34.3647 -101.911 204.771
14785 1 3.09256 -68.0418 -16.9234 -253.902 174.02 -37.7595 -89.5539 18.4128 112.665 -337.466 447.772
17397 2 3.07607 -66.4092 -16.8553 81.4965 -78.0913 35.1536 60.9038 -2.70585 -64.4877 -98.8386 209.394
12393 2 -0.871017 -66.531 -19.7071 41.6702 -72.2394 87.3298 96.4657 8.65538 -23.9492 -103.689 223.883
19541 2 4.58305 -72.0661 -20.3534 115.297 -124.364 15.9577 80.0132 1.08416 -0.129286 -91.1496 250.415
15074 1 -0.779985 -65.925 -18.2015 -103.026 111.576 -154.287 -157.681 9.95181 86.25 -322.275 396.089
24864 2 4.84906 -71.6174 -15.3006 182.637 -123.389 -28.3423 35.7686 17.6093 -11.451 -99.2455 280.644
14859 1 5.17656 -66.4969 -20.838 -116.87 175.801 -137.458 -67.8755 100.202 113.649 -335.433 418.087
22267 2 5.07008 -67.7972 -19.8877 53.8867 -91.2474 49.0343 44.3139 -27.6787 -100.511 -94.9564 242.652
14882 1 5.84583 -71.6495 -19.4994 -174.718 274.332 -100.486 -77.6476 -25.6427 27.369 -355.024 442.865
12330 2 7.12559 -70.9632 -16.1975 103.807 -117.412 -19.6946 35.4271 40.0074 -63.1665 -97.5084 239.596
27389 2 9.58972 -70.7844 -15.6193 111.708 -79.4686 -24.1802 39.9944 28.7254 -47.5917 -98.9591 207.616
17675 2 5.99597 -70.024 -19.2487 51.1178 -104.117 36.1876 41.6837 6.77745 -49.8302 -91.5978 186.555
17392 1 8.17362 -70.1106 -15.3424 -262.568 177.204 32.6101 -126.663 -108.768 119.926 -337.538 526.77
5018 1 5.60719 -68.6734 -18.7201 -160.065 205.493 -75.9151 -72.6655 -26.5158 169.722 -348.104 462.946
17112 2 8.00771 -68.616 -15.7608 105.119 -64.9766 -12.31 65.3499 47.7562 -61.7385 -96.4847 232.027
15068 2 6.79048 -67.912 -17.9629 103.996 -121.336 40.6504 51.1956 66.1297 -81.2803 -93.242 285.158
17191 2 9.49001 -67.6137 -17.6449 119.997 -134.85 17.8085 48.6152 26.9888 -58.8249 -95.8652 262.686
12015 1 7.99941 -67.5139 -16.976 -220.619 200.764 -32.3186 -119.866 -123.209 100.999 -345.32 502.913
22382 1 11.0516 -71.4674 -15.4843 -170.563 74.4097 25.4667 -77.0437 25.8675 31.2064 -336.823 270.469
17206 2 14.4568 -72.0248 -15.8074 55.5126 -40.1036 3.37899 31.484 -14.9026 -4.60798 -95.5123 102.855
17282 1 10.9366 -67.2892 -18.2187 -214.023 308.027 -160.52 -26.5423 -21.6169 66.4437 -338.246 514.03
22566 2 10.9614 -66.9363 -19.8322 99.4059 -160.193 113.415 -22.9514 70.5974 -37.3576 -96.2807 303.222
29790 2 12.0911 -71.82 -16.6384 47.0445 -28.8675 31.3793 33.9032 -36.1632 2.009 -95.2192 110.465
17561 2 14.1242 -69.0856 -19.4491 2.67742 -89.1242 76.4896 5.70027 7.17866 35.6675 -99.01 157.227
27300 2 14.2971 -68.4873 -16.5781 62.503 -81.2611 44.4909 18.9455 -1.30985 -48.0348 -104.756 162.502
7167 1 13.7102 -68.2596 -18.0844 -86.0177 246.751 -157.636 -32.886 -17.721 19.5259 -328.334 380.824
19869 2 12.0995 -68.3562 -17.9653 73.31 -129.573 67.4809 22.8707 -7.36265 -32.2682 -99.7339 211.821
22387 2 14.2547 -66.8318 -18.6001 46.9425 -150.291 55.2284 1.73341 27.4063 8.59631 -106.158 207.577
12471 1 15.8622 -66.6555 -18.9695 -113.018 265.337 -200.846 -23.3814 11.8493 48.5499 -323.401 439.578
22253 2 16.3118 -66.5674 -20.5039 36.8295 -117.47 89.8527 15.289 -11.3269 -25.6065 -102.677 194.562
17497 1 14.7162 -68.4579 -14.9776 -164.551 99.2158 -11.25 -65.6084 18.1677 111.681 -326.369 322.428
22636 1 13.763 -68.9445 -21.0209 -31.2901 118.506 -114.253 -17.3844 -44.4818 -150.972 -341.149 342.008
22471 2 16.5813 -67.9224 -18.327 51.3303 -129.396 78.0608 -10.8742 13.7743 -18.3509 -103.976 200.354
19422 2 21.9874 -72.0224 -15.8867 12.2755 -34.3374 26.4941 -21.3234 -41.1698 9.88772 -93.9392 98.8935
14766 2 21.7015 -72.0416 -20.9481 104.217 -63.1923 17.8947 26.231 -23.1238 -32.2585 -96.6367 166.783
22286 1 17.9215 -71.5511 -16.2435 -103.543 73.3 -9.57128 76.2716 52.5169 -1.51463 -344.309 221.853
24780 2 19.4114 -71.258 -15.6772 38.108 -31.4749 -11.7642 -39.366 -13.1731 -13.1885 -96.0752 97.7252
17192 2 17.2847 -70.2442 -16.9015 58.0997 -30.8244 2.65787 -37.6598 -17.8015 -3.8779 -98.3363 106.31
19977 2 20.518 -69.7945 -20.6368 91.2714 -58.7225 20.329 -46.2275 -29.0206 5.56927 -94.1131 160.999
22655 2 18.9211 -68.973 -18.3602 83.4916 -75.8592 37.0532 -45.5247 -18.3672 1.08397 -98.6157 165.476
17476 1 17.6525 -68.7709 -17.4216 -155.455 153.36 -90.3637 83.2917 -5.65014 21.0653 -331.537 318.97
22203 1 20.2306 -68.7553 -19.4301 -185.108 136.529 -61.741 119.549 42.865 0.912868 -341.41 356.905
24680 2 21.8741 -68.7723 -15.7989 87.8493 -97.5436 49.5905 6.29423 -26.1408 30.6979 -100.027 183.677
22283 2 21.4904 -68.8314 -18.5233 97.2263 -85.6045 36.916 -45.4636 -16.5447 31.7539 -98.5145 189.96
17186 1 22.5507 -68.5001 -17.2997 -196.205 163.659 -94.2669 26.9937 58.2314 -100.818 -333.918 382.18
2147 2 17.9237 -68.0103 -16.0617 85.4604 -86.3238 19.602 -19.8549 28.3967 13.5993 -104.604 163.372
27473 2 19.993 -67.3373 -20.1455 83.9042 -74.4853 43.5455 -47.2753 -13.149 -37.7475 -97.7513 178.387
25283 2 22.7692 -66.9119 -17.2784 85.8521 -74.8362 55.6832 -23.9212 -0.583813 39.6516 -102.244 168.278
24708 2 16.9028 -72.0015 -15.0425 70.7506 -36.7123 10.3901 -19.651 -30.7847 -44.7938 -93.991 136.844
19503 1 25.5595 -71.6605 -20.0013 -35.7613 74.9656 -39.7441 42.7608 1.53273 -18.8417 -325.364 138.834
27252 2 25.2454 -70.9928 -18.6315 24.4682 -47.2655 34.4503 -20.1776 -11.5672 25.7305 -102.509 97.8284
24674 1 25.3586 -69.7965 -17.6166 -71.8251 125.11 -123.431 82.3806 9.78001 -118.875 -331.878 338.6
27251 2 26.035 -69.6105 -16.1812 54.239 -65.9325 85.3385 -65.4243 34.174 42.0849 -99.1939 201.999
17002 2 23.9093 -69.2834 -17.4282 55.8934 -70.2724 33.6488 -30.5326 -49.632 62.7113 -100.955 188.656