ITEM: TIMESTEP
940000
ITEM: NUMBER OF ATOMS
29952
ITEM: BOX BOUNDS pp pp pp
-2.5141811457830563e+01 3.5127105799817414e+01
-9.0713385871809635e+01 1.0069868021380964e+02
-2.0959296319110130e+01 3.4827149464552392e+01
ITEM: ATOMS id type x y z v_StrAtomXX v_StrAtomYY v_StrAtomZZ v_StrAtomXY v_StrAtomXZ v_StrAtomYZ c_PEAtom v_VMS
27180 2 -21.1495 -84.6004 -18.1153 34.0744 -66.0436 90.0101 44.8424 -7.81762 -64.6104 -102.471 193.628
27378 2 -22.9593 -84.6606 -16.1523 74.3143 -26.8306 36.8275 -15.6011 20.3315 -49.808 -105.511 131.365
2284 1 -22.2263 -85.4996 -17.3567 -81.9009 78.6139 -179.399 -48.1054 -63.6213 99.6952 -327.339 315.948
24479 2 -23.3019 -85.9025 -18.433 62.0527 -53.5285 71.4352 6.02209 86.575 -43.4294 -98.1387 206.844
29642 1 -24.6508 -86.2686 -19.2587 -143.34 82.9765 -77.3316 35.4649 -111.115 92.14 -341.922 326.986
27072 2 -21.5286 -86.7816 -16.5897 1.16784 1.22278 65.1143 34.0062 -6.15229 -36.5618 -110.059 108.068
29771 2 -24.1419 -87.2619 -20.3903 41.611 -73.1841 66.9912 -6.35694 28.5244 -22.6824 -95.2927 144.365
29668 1 -20.4251 -87.5373 -15.6736 -32.4804 -51.7296 -77.5568 -55.4695 126.849 69.754 -303.955 271.356
7160 2 -24.2259 -88.3629 -15.4137 91.3459 -1.58957 29.0069 41.466 35.2747 -16.2018 -106.991 128.095
2300 2 -23.0706 -89.0585 -17.8767 33.6877 -91.0964 93.0599 43.8452 41.5573 -34.652 -102.068 202.621
29448 2 -20.6779 -89.1337 -18.7731 43.9936 -125.649 105.799 37.2969 -8.28108 -19.4723 -102.695 220.453
27308 2 -22.7135 -89.3076 -20.4307 21.6369 -103.476 120.199 28.7512 28.3272 -36.0705 -95.4913 215.615
24469 1 -23.9785 -89.4584 -16.6112 -108.536 89.9717 -126.455 -150.899 -81.4049 61.0009 -327.086 377.675
24638 1 -22.1588 -89.6916 -19.0282 -77.1466 200.927 -203.695 -87.5786 -41.5944 47.3437 -336.118 404.294
2144 2 -19.376 -88.1609 -16.7288 50.3433 -8.0716 55.8049 12.0195 -69.3804 -15.9975 -110.81 139.296
27239 2 35.0309 -90.2593 -17.2345 41.1626 -31.8178 39.7129 74.1989 44.8209 -51.0592 -98.3353 188.644
24757 1 -19.2812 -89.1915 -17.9321 -103.554 175.729 -163.166 -22.046 112.167 20.8998 -320.289 372.444
29778 2 -23.3065 -90.6373 -15.7293 32.1514 -32.4698 14.769 125.75 17.6791 3.07329 -107.846 227.509
6930 2 -14.7808 -84.9904 -15.6769 154.119 -62.9995 -10.5192 75.122 -12.6314 -56.7758 -106.67 256.084
4714 2 -16.3313 -84.9217 -19.8009 12.8154 -52.0453 99.0746 47.8608 -9.04144 -12.9343 -100.608 157.675
29951 2 -16.762 -85.2539 -17.2278 78.0435 -37.4384 31.6141 64.7064 -30.728 -47.3498 -105.855 179.581
4900 1 -16.3316 -85.4349 -15.7226 -258.555 31.3402 41.6234 -128.934 59.6272 113.517 -320.691 431.651
1904 2 -15.8697 -87.3643 -20.2306 10.4078 -26.5967 77.4275 2.88692 -23.313 -52.3571 -100.532 134.983
9589 1 -15.078 -88.819 -20.1543 -126.514 207.388 -157.383 16.8474 76.937 148.684 -328.905 455.72
2205 2 -18.1382 -89.2084 -19.1082 27.7877 -104.589 94.054 39.2669 -52.1294 -56.768 -104.67 230.505
7038 2 -14.722 -89.3329 -18.6653 92.9166 -119.678 64.8306 4.6045 -51.5339 -42.7639 -105.854 231.369
9883 2 -16.018 -90.0596 -20.5143 35.7056 -156.827 68.0604 -1.36653 -67.7548 -85.9006 -102.112 283.301
4419 1 -17.6178 -90.0386 -20.3813 -77.17 267.249 -210.581 -131.841 29.8308 155.583 -332.889 556.601
4778 1 -16.5344 -86.0833 -20.8424 53.6582 79.7056 -225.53 -31.3241 44.0437 42.6229 -335.149 316.402
2399 2 -16.2783 -86.8586 -15.0875 121.767 39.0605 -28.1755 57.971 -23.2406 -49.6645 -107.697 189.8
2295 1 -13.5011 -90.2514 -15.1875 -249.414 121.86 -60.5315 -94.9423 146.297 54.6431 -315.611 451.223
4570 2 -18.9547 -90.6249 -17.2489 48.3519 -110.969 61.4045 17.5931 -38.7577 -10.6686 -107.942 182.783
7151 2 -14.294 -88.8726 -14.9475 114.407 -4.51003 0.61113 67.5049 -53.6617 -8.13797 -109.187 189.912
12588 2 -12.674 -84.6001 -17.1218 146.888 -68.2835 -1.74288 32.2373 -24.941 -39.8595 -108.219 214.847
5029 1 -11.2985 -85.3353 -17.6387 -177.975 67.4523 -50.1175 -72.2214 65.37 -5.75122 -313.916 271.604
27156 2 -10.7382 -85.8328 -16.2501 81.0205 -16.3937 10.1443 57.0714 -51.031 0.275008 -113.225 158.722
7290 2 -11.0891 -86.5647 -18.6577 41.9763 18.5588 35.5535 62.5563 -18.1348 28.2825 -107.456 124.761
9716 2 -8.6853 -87.1399 -18.2737 62.7898 19.3848 28.4148 60.9027 -10.2153 24.6518 -114.193 121.808
7213 1 -9.90587 -87.189 -19.4272 -49.8587 -51.8591 -100.675 -152.276 12.2793 -30.3289 -315.069 274.336
29938 2 -9.58632 -86.3873 -20.7549 -2.2537 -27.2609 100.035 48.6036 27.405 -7.6955 -107.849 152.197
9894 2 -7.64398 -88.1662 -16.1093 96.8614 42.7908 -11.5888 103.505 -52.3757 12.0717 -114.894 222.773
2122 2 -9.83884 -88.7483 -19.7957 33.0989 34.2918 38.0864 105.146 6.16341 -0.27724 -110.366 182.487
7283 2 -10.1468 -90.0952 -17.6081 47.155 42.6213 34.8237 103.246 -39.1504 9.22159 -111.814 192.221
10084 1 -10.1573 -90.198 -19.2658 -109.961 -68.448 -40.0733 -200.638 18.967 31.5734 -310.577 358.528
7299 1 -7.35241 -87.5857 -17.5532 -198.43 -15.1074 -47.4941 -154.629 33.6703 -52.9568 -303.695 335.058
24667 2 -11.9238 -90.3697 -15.7227 121.088 -52.5533 39.1885 67.0375 -74.5363 -9.24296 -109.173 230.311
9701 2 -10.3429 -84.1951 -18.1598 57.7236 -50.1702 44.5737 13.9972 -5.52119 1.99591 -113.263 105.292
15108 2 -6.84746 -90.093 -20.7966 80.966 -11.2392 15.6353 106.407 -20.3056 -30.2723 -110.215 211.423
7389 2 -6.05888 -85.5012 -20.6694 111.267 -76.6814 65.4095 72.9896 -34.8654 -22.5469 -109.88 223.524
12266 1 -4.70505 -85.8518 -17.3409 -223.533 22.4827 -110.905 -188.298 -0.312854 -71.8497 -304.332 409.092
9875 2 -4.22059 -86.1885 -18.8214 108.49 -36.9911 90.1885 101.14 -37.503 10.8158 -112.147 232.585
7465 1 -4.63725 -86.4376 -20.4035 -212.248 102.568 -146.913 -188.55 148.125 8.37398 -312.145 505.466
9791 2 -6.23659 -86.3899 -17.4269 106.699 -18.8927 35.4257 73.7364 -6.22511 38.2964 -116.571 180.912
12366 2 -4.02299 -86.646 -16.0546 153.118 10.6903 -25.9078 61.0626 22.5679 56.3572 -117.188 221.54
12163 2 -5.09145 -87.951 -20.4448 91.7681 -43.2849 50.392 94.2425 -60.9526 -18.5576 -111.68 230.623
4427 2 -6.69523 -88.7268 -18.4797 78.8767 17.4999 16.8614 92.7222 -17.5112 16.732 -114.277 177.084
2032 1 -5.84285 -89.2569 -19.8202 -189.416 3.83506 -44.2171 -200.552 51.0562 2.84503 -311.066 398.593
9605 2 -2.05634 -89.7801 -16.4969 184.052 -75.6724 -124.111 88.6678 17.8794 14.464 -118.547 327.957
9498 2 -4.72344 -90.3898 -19.3672 94.4815 -29.6418 4.3871 95.1101 -2.30986 -5.41354 -110.12 198.953
12170 1 0.274855 -84.6394 -20.0828 -76.0766 89.7389 -258.57 -29.0147 12.6971 -111.322 -300.662 362.278
14481 2 1.57717 -84.7225 -16.388 83.9661 -6.81386 2.13646 62.3876 -22.2199 50.0014 -116.814 167.83
12183 1 1.55215 -85.4519 -15.0592 -275.947 4.9994 81.3787 -125.665 61.2033 -195.069 -306.046 528.196
11719 2 0.291229 -86.2455 -19.8734 34.8666 -50.9012 132.666 24.9363 -7.44581 -12.8699 -116.636 166.846
4740 2 1.97425 -86.96 -15.5609 138.167 61.7639 -129.359 42.8996 8.25496 65.5802 -112.594 274.947
7007 2 2.12056 -86.9001 -18.2856 -6.05063 -24.9655 74.424 50.2031 8.39302 -27.9133 -113.755 135.889
2007 1 1.5502 -87.1767 -19.7352 75.5516 133.621 -312.062 -77.9598 17.4991 101.228 -303.348 475.414
7274 1 1.8026 -87.685 -16.9393 -151.317 -41.5721 132.117 -91.4469 26.5334 44.3111 -302.915 307.187
7008 2 0.204923 -88.1619 -17.0081 80.2149 -13.7771 -32.9086 74.4009 -64.632 -33.4223 -119.242 208.538
12305 2 1.31169 -88.7385 -19.8791 -29.7495 -81.1696 122.934 61.7516 1.01345 -66.3326 -112.5 241.765
12277 1 -0.706272 -88.9228 -15.9911 -289.038 50.8268 302.077 -125.019 124.839 -38.5647 -290.638 601.774
14585 2 2.50306 -89.1744 -16.8953 143.3 -85.3161 -141.276 -15.4671 45.566 -63.354 -112.075 295.26
9773 2 0.188231 -90.1855 -15.2741 150.047 -88.6032 -283.494 26.5877 -39.1522 -11.8045 -118.854 385.466
9686 1 1.4411 -90.2874 -20.1318 56.12 127.735 -134.115 -79.3055 -35.9415 92.0613 -329.27 321.109
7268 2 4.64735 -90.5449 -17.0187 217.425 -109.052 -241.149 -58.2992 136.055 -22.7393 -91.4736 484.194
10265 2 4.75799 -89.2569 -14.8786 290.144 -122.886 -265.237 -23.6199 185.351 -0.341212 -98.2652 595.308
16521 2 9.1568 -85.5465 -20.0221 165.912 -176.462 25.0411 -102.453 95.3233 -89.0225 -93.8785 413.955
12198 2 6.76857 -85.746 -15.8082 241.717 -71.5107 -116.778 -102.343 58.8255 9.40541 -96.84 395.485
9602 1 9.40415 -86.7192 -18.9823 -375.27 354.089 47.4851 301.865 -132.974 209.382 -346.88 927.514
4578 2 8.32151 -86.8117 -17.7468 256.128 -193.736 -77.2014 -119.973 12.1372 -98.0967 -93.1407 485.824
2368 1 7.42934 -87.1342 -16.4072 -570.305 254.091 322.316 147.723 -79.892 131.795 -346.492 936.617
16985 2 8.32566 -87.6747 -15.1352 258.016 -118.253 -157.191 -89.0855 52.352 -41.0115 -95.8036 441.387
9893 2 9.33326 -87.9698 -19.9314 168.894 -215.944 14.3857 -140.015 124.654 -71.9987 -87.294 483.21
14232 2 6.36965 -88.3611 -16.736 325.884 -135.502 -212.647 7.86707 89.5924 -90.5918 -91.5868 550.734
12208 1 5.74064 -89.7189 -16.1742 -595.796 255.413 552.104 23.9999 -292.638 112.178 -349.716 1166.84
11906 1 9.14687 -89.3303 -20.8247 -263.822 323.075 12.4937 176.047 -326.551 94.773 -383.047 835.74
9671 2 10.6913 -89.8801 -20.3836 25.7562 -119.367 -34.8699 -95.5432 181.777 -31.4949 -82.3826 381.351
14519 2 6.89877 -90.3692 -15.1974 245.296 -114.97 -323.835 -48.9265 140.542 -31.9151 -89.2716 564.054
14795 2 7.91229 -90.0471 -20.3028 213.495 -100.13 -87.0963 -29.5866 65.093 -34.5315 -65.9323 336.686
19745 2 10.6997 -88.1195 -15.9628 200.29 -139.967 -82.1552 -157.252 -2.73226 -44.581 -102.567 423.811
17105 2 10.8874 -86.9075 -18.1706 137.449 -100.609 -75.1459 -168.085 47.39 -97.389 -101.36 413.772
22384 1 16.3322 -84.7489 -16.0005 -191.432 115.561 -52.0951 75.2358 82.0671 44.059 -328.581 337.482
19424 2 15.2545 -85.9575 -16.0421 75.9241 7.80198 1.1111 -28.7218 -3.64155 -11.3639 -104.562 89.6839
11835 1 14.6863 -87.4642 -15.7751 -108.872 -15.9233 23.2873 90.5535 -97.3417 -7.37499 -318.186 258.864
19774 2 13.1871 -87.5505 -16.4895 85.8695 -26.7616 -46.581 -97.3718 60.2752 -11.6207 -109.343 234.647
16803 1 11.7682 -87.8349 -17.1877 -234.204 202.387 165.999 330.626 -85.201 115.938 -320.068 752.39
14767 2 12.7984 -85.5511 -20.8832 132.514 -125.286 2.19452 -90.9874 43.2865 -107.772 -93.8535 339.336
22295 2 16.7411 -88.046 -20.1354 102.809 -135.444 -41.33 -79.9582 -75.4386 -102.781 -99.5375 333.382
17469 2 15.2464 -88.8598 -16.4005 64.7317 -56.7009 -53.9884 -56.2501 39.7241 -60.0301 -110.395 198.648
14709 2 12.1322 -89.2828 -17.9594 29.2321 -151.085 -128.258 -149.178 73.8268 -89.237 -108.433 368.676
17128 1 12.1044 -89.436 -19.9338 22.1223 301.788 62.1228 233.755 -246.658 159.119 -344.209 700.734
16997 2 12.5729 -88.1575 -20.6927 49.2483 -168.042 0.463375 -87.6868 66.385 -131.638 -94.3247 356.747
24555 1 15.7707 -90.2745 -17.0398 -186.296 208.048 212.919 207.996 -18.3554 227.581 -324.923 666.055
17008 1 12.7959 -90.589 -17.0544 26.7569 185.502 299.182 214.376 -112.203 160.888 -320.276 556.295
14385 2 12.77 -90.5641 -15.53 34.2312 -102.776 -79.2779 -116.999 28.058 -92.1609 -106.291 291.57
19415 2 16.8752 -89.8647 -18.1177 156.599 -112.89 -89.5789 -95.2709 -101.116 -127.053 -98.6466 416.193
9417 2 17.3308 -85.1998 -17.119 116.458 -75.3859 5.9724 -34.4175 -47.6766 -27.1894 -103.386 201.012
22059 1 21.7492 -84.9488 -19.9695 -148.909 172.252 -75.7977 46.4345 47.9036 125.493 -330.317 381.585
26994 2 18.9159 -85.5486 -19.0993 86.7923 -76.1831 -48.5851 -21.3787 16.0855 -38.7068 -103.838 171.659
24688 1 21.577 -85.9307 -16.506 -101.255 90.485 8.50292 168.142 14.3788 163.208 -327.66 439.446
22086 2 21.1092 -86.463 -19.806 68.8243 -17.2595 3.0334 -26.5423 -16.0626 -13.5773 -99.6707 97.5493
19439 2 20.4784 -86.6931 -17.4376 84.3138 -19.7865 -56.3386 -60.3972 17.6005 -56.8539 -102.63 193.773
2320 1 19.8468 -86.9377 -18.8905 -164.877 36.4353 126.643 83.6892 -32.8768 28.7389 -330.611 305.869
17467 2 18.9285 -88.2118 -18.9323 82.419 -37.9163 -64.6198 -92.9965 -25.4999 -43.7668 -100.449 228.143
22454 1 17.681 -89.0971 -19.299 -228.32 216.097 126.174 219.74 209.571 184.994 -338.147 738.184
19796 2 21.4775 -86.0482 -14.911 30.8962 -57.5747 27.2851 -105.05 -18.5288 -57.9401 -99.5802 227.439
24670 2 18.1302 -90.2537 -20.281 53.2709 -74.6846 -79.3717 -171.978 -96.5786 -55.3358 -90.0754 378.01
24594 2 22.9463 -86.5657 -17.0629 40.3356 24.7724 -50.5558 -100.735 4.52242 -113.995 -102.202 276.726
19589 2 23.2329 -84.9566 -19.5244 59.8766 -78.7615 0.165484 -49.2237 -52.2686 -62.5798 -104.135 204.258
17353 1 26.0043 -85.9223 -19.5978 -143.425 100.391 -55.4679 163.68 99.5778 105.826 -337.514 435.265
22745 2 27.5052 -85.9113 -18.9317 90.2529 -57.8333 17.1345 -59.7396 -15.7695 -74.5315 -98.9645 211.105
21998 1 26.4525 -87.0477 -15.218 -130.154 -12.5431 41.931 34.4249 -16.714 183.038 -337.391 357.922
4615 2 25.2989 -86.8811 -16.3213 58.8411 20.4107 -26.5145 -74.6069 18.7373 -134.649 -98.9392 278.613
22195 2 24.9527 -86.9083 -18.8372 42.1448 11.5258 9.69886 -71.5247 -45.1476 -83.3226 -97.3003 208.055
16995 1 24.2665 -87.3337 -17.4401 -64.6456 -108.439 68.271 168.202 2.20454 257.84 -337.306 556.543
21908 2 27.6081 -88.0173 -15.9377 49.8746 3.35261 -29.8165 16.8341 -20.135 -89.1723 -100.352 175.297
24103 2 24.3238 -88.9624 -17.2805 -17.8401 96.0703 -44.3346 -51.3477 20.0973 -97.4561 -97.3467 233.045
26910 2 23.2212 -89.4858 -15.0263 -24.3809 64.3679 -32.1413 -85.2063 3.56591 -59.9579 -101.865 203.048
24947 2 28.1593 -90.0699 -20.2695 -41.0558 93.4867 4.4192 26.6426 -11.3391 -41.0394 -93.3814 147.035
19783 2 27.4263 -85.7811 -14.9645 80.1996 -12.7045 0.642791 -10.8504 13.374 -54.9197 -96.9057 132.316
29827 2 28.1364 -90.2698 -15.8802 1.48198 125.121 -66.6616 27.5685 -30.0557 -44.5483 -99.0303 198.24
19755 1 24.0018 -90.2241 -16.2814 101.318 -209.762 80.0545 114.273 -57.4322 100.517 -332.816 412.298
24661 1 28.7899 -88.9644 -16.4812 -22.1388 -72.6618 -4.19497 -70.1005 64.4606 143.013 -336.598 303.886
2214 2 25.7276 -90.4138 -20.833 -18.9513 78.299 -8.90857 -21.2488 -14.2188 -76.0661 -92.7729 167.036
4816 1 28.8787 -85.0485 -15.1517 -108.187 47.2947 -49.5779 -0.289107 -51.6015 76.196 -337.926 209.53
12510 2 28.9098 -89.0206 -18.0413 -32.4389 19.1485 48.5481 28.9681 -40.7236 -52.4145 -96.7065 144.141
19640 2 28.945 -87.4359 -20.2164 2.27086 -17.267 33.509 -19.7216 -7.55335 -52.0053 -98.5738 106.862
22081 1 28.9617 -85.9143 -19.711 -89.0025 106.547 -67.9611 69.1632 12.7799 129.271 -334.205 315.502
29514 2 29.1173 -84.6315 -20.6135 60.6727 -57.8607 33.1261 -28.9382 -18.6158 -67.2465 -99.7456 169.298
19707 1 26.8781 100.592 -15.0166 1.45752 -300.804 186.958 16.0769 35.6638 34.0296 -331.245 435.783
24763 2 34.9346 -84.9288 -19.8084 29.0982 -30.598 37.368 -13.4065 42.6506 -74.6486 -97.8763 163.827
27050 1 29.1997 -89.021 -19.6676 64.857 -98.7349 -59.2388 -56.1026 48.1047 74.6603 -342.313 234.453
19575 1 30.9987 -85.1419 -17.49 -7.69209 75.997 -135.376 -75.9629 -15.2156 82.9561 -330.758 269.525
17166 2 30.091 -85.4583 -16.1962 3.1787 -37.8557 52.5709 23.3056 16.4932 -46.5494 -101.739 122.867
19566 2 30.2074 -85.794 -18.6999 7.54877 -46.7471 53.7823 3.98682 0.639909 -56.3733 -102.263 131.067
22080 2 32.3972 -85.9013 -17.2935 -0.51151 -23.9898 70.8247 22.0524 5.9215 -40.0916 -100.962 117.052
24756 2 34.635 -86.9263 -18.0612 90.5143 -37.6037 51.3309 -6.81475 54.1857 -51.1977 -97.2338 172.455
29667 1 33.0817 -87.2872 -17.5829 -120.221 66.2768 -120.514 -1.36757 -39.8976 100.113 -337.684 263.979
27149 2 32.4182 -87.9511 -18.829 -4.18796 -30.982 41.3347 6.25337 6.84195 -42.5124 -99.5304 98.4359
22068 2 32.89 -88.108 -16.2243 79.7323 -16.9651 58.0871 -4.31986 28.0517 -53.1603 -98.5715 136.457
2209 1 31.6378 -88.3943 -15.183 -69.7843 -40.1605 -60.6202 -35.8386 -34.4821 98.5529 -332.553 192.998
22360 1 32.0823 -88.4944 -20.2838 64.0113 11.0702 -90.2086 -1.59468 20.4396 65.5299 -337.006 180.459
29745 2 30.2344 -88.5465 -15.9899 -2.08508 12.811 23.2148 30.3524 -1.45524 -63.278 -100.954 123.562
24761 2 30.6927 -89.2919 -20.1164 -52.1138 48.794 25.6159 23.9923 -21.5795 -32.9977 -97.6064 121.537
24660 2 33.1792 -89.5882 -20.6614 -19.809 -1.11036 27.8516 21.0221 -0.694789 -37.9614 -96.3454 85.9093
9793 1 -20.1173 -83.4976 -18.6847 -54.2495 161.162 -218.779 -68.7639 70.9133 149.418 -331.535 452.948
24669 2 -20.0501 -82.8824 -20.1949 20.1243 -71.3442 82.4438 13.0248 -16.3405 -83.4844 -98.2485 200.423
9131 2 -24.4544 -82.4624 -20.2915 58.2506 -107.4 74.7239 -6.29335 30.6308 -78.531 -98.3787 227.762
9896 2 -20.2559 -82.2605 -17.7397 8.98731 -38.2743 75.845 17.2679 -45.4697 -68.5937 -102.354 176.283
29950 2 -21.403 -81.2977 -15.4685 62.1904 0.687692 -25.9174 -12.0583 -50.3575 -7.78159 -104.294 119.801
24375 1 -20.0431 -81.3989 -16.4174 -42.8805 -23.2333 -67.0543 -32.7646 93.6253 106.984 -327.73 255.538
27366 2 -23.9804 -80.2752 -15.204 87.3235 -34.8462 11.0431 -13.8867 19.1203 -45.8113 -103.144 139.271
22469 2 -19.6795 -79.9083 -16.8969 12.0064 4.03683 52.5501 13.9195 -40.2336 -54.7922 -100.705 128.353
4690 2 -19.7343 -79.1944 -19.5196 4.62164 -71.9422 103.514 -13.3719 -27.9751 -40.8025 -99.156 176.329
27268 1 -19.7217 -78.7831 -17.9679 -36.3326 109.436 -190.452 2.41377 36.9837 69.761 -335.464 293.577
2175 1 -19.4103 -78.483 34.9084 -37.9009 160.889 -162.219 46.0692 50.645 90.6992 -335.637 344.131
7383 1 -17.0144 -84.2846 -18.4835 -109.499 167.714 -160.551 -119.862 32.6261 84.2483 -326.598 401.489
2099 2 -18.6203 -84.0956 -18.5884 28.2461 -88.5941 99.3608 33.3971 -52.4948 -60.1067 -104.128 222.418
22297 1 -13.6701 -83.8942 -16.0594 -320.117 176.725 -21.1986 -105.601 27.0011 121.616 -319.465 517.399
12392 2 -16.3168 -82.8974 -18.0701 100.018 -82.5174 40.4732 80.783 -14.2034 -74.0849 -104.456 250.289
4797 2 -14.1955 -82.5762 -16.8233 126.554 -54.9549 1.88356 60.083 -15.2702 -74.808 -106.923 232.761
2580 2 -14.2194 -82.074 -19.4319 53.4267 -85.8556 84.0059 47.3422 11.3898 -71.9774 -104.36 217.368
7394 1 -15.0451 -81.911 -18.04 -200.903 118.567 -54.9069 -142.54 25.9706 147.355 -324.446 452.604
4836 2 -18.6775 -82.0785 -15.8184 68.9238 -10.2095 22.1569 38.8102 -42.5892 -26.2503 -105.826 129.522
7390 2 -15.1131 -80.368 -17.5826 85.7495 -73.0289 50.7229 34.6144 -24.1498 -21.1993 -104.655 166.037
4707 1 -14.6515 -79.0893 -16.6322 -170.814 168.626 -152.184 32.7046 69.4729 -32.7667 -324.622 360.766
2365 1 -14.192 -78.9072 -20.6851 7.55829 175.771 -276.139 -62.0839 -52.1513 156.257 -325.488 499.473
2517 2 -14.632 -79.0037 -15.015 97.0777 -90.6406 83.154 -8.99831 -26.1694 24.3829 -105.04 192.092
4882 2 -15.6271 -79.6428 34.9605 62.1106 -123.437 116.761 36.9065 21.9469 -70.9714 -102.57 261.145
9715 2 -17.9665 -81.4269 34.8772 21.0227 -61.6585 62.6622 37.9302 -21.1567 -91.7903 -100.307 207.239
12288 2 -13.1432 -80.1337 -20.6904 -18.9841 -88.6814 148.291 -12.6687 30.4179 -70.7706 -104.713 250.559
17854 2 -13.1292 -78.8627 -16.9702 51.3528 -109.073 79.0229 -28.8773 7.21345 -7.1052 -107.64 183.713
17479 2 -7.82445 -83.826 -19.334 100.223 -55.7511 98.5197 63.5784 -28.2768 4.04584 -110.258 196.569
7245 2 -8.22403 -83.8216 -16.8759 113.979 -41.4474 10.0742 52.4154 -0.381034 19.0638 -117.185 167.741
12292 1 -8.88588 -83.5084 -18.2471 -157.475 96.3106 -119.186 -81.7375 16.898 -43.8508 -307.592 287.792
29640 2 -9.34428 -81.9622 -18.5254 94.4087 -82.3048 64.2749 38.1694 17.7541 -8.58648 -109.9 179.856
12299 2 -10.3909 -81.5772 -16.4317 86.0363 -46.8737 5.42361 19.5892 22.7233 3.89645 -113.737 127.26
2210 1 -12.8345 -81.6851 -20.1869 -52.5346 199.532 -265.356 46.6657 -47.0737 96.8824 -325.848 451.459
2010 2 -11.7996 -81.5622 -18.9647 67.4992 -85.5661 71.2357 -33.0992 50.1623 -38.1283 -108.158 198.019
7009 1 -9.04671 -81.2975 -15.5366 -229.319 92.736 -35.9564 -81.8374 20.5705 -53.2715 -306.677 329.712
4789 1 -10.6185 -81.1349 -17.9917 -210.946 158.402 -54.1146 38.272 -114.032 33.9786 -313.943 387.242
17867 2 -7.81257 -80.8268 -16.5104 154.339 -76.1236 -29.2041 99.7814 -13.1776 -4.20945 -113.72 273.76
4961 2 -10.6726 -79.5513 -17.8977 113.769 -119.073 40.703 -10.2783 61.6501 -43.7481 -107.021 244.953
7478 1 -11.5721 -78.4698 -17.1467 -164.55 200.266 -134.974 70.6886 -108.647 66.5015 -322.981 432.257
12301 1 -8.02645 -84.033 -15.2552 -296.98 85.3442 -36.7189 -118.726 14.2486 -32.5882 -300.806 400.607
12193 1 -7.03932 -84.1947 -20.7259 -203.635 116.446 -169.976 -150.923 26.2353 84.564 -319.844 429.723
12204 2 -4.56971 -84.223 -17.1784 111.709 -10.5671 69.3952 107.599 -5.68707 29.7886 -115.359 221.494
14894 1 -2.2733 -82.7785 -20.0135 -239.95 60.9256 -171.635 -76.4349 20.0244 -110.276 -310.651 360.349
9818 1 -4.04033 -82.6891 -17.2344 -238.424 38.817 -191.833 -186.462 -1.44704 -0.826285 -303.837 412.83
7385 2 -3.21214 -82.6619 -18.6154 120.376 -41.0651 108.456 75.4416 -24.3912 21.1897 -112.961 210.92
14685 2 -3.16583 -82.4671 -15.7882 108.621 -34.4553 69.3098 99.5681 22.914 17.0309 -121.421 220.405
17301 2 -5.23611 -81.5997 -17.1848 143.957 -25.4572 53.3171 88.4156 4.45454 -23.7632 -114.691 216.256
12395 2 -1.47571 -81.3642 -20.2743 90.5732 8.15684 74.7465 25.0384 22.5391 48.2297 -113.294 126.971
12297 2 -4.62103 -80.8056 -20.6048 40.2009 -20.4015 110.278 56.2647 35.4647 -7.67122 -109.607 162.103
9782 1 -6.43253 -80.4557 -17.2882 -293.088 90.1739 -62.6518 -232.893 62.7619 53.9419 -309.514 543.081
12597 2 -6.35064 -80.0254 -18.8493 80.7627 -55.3469 103.837 117.935 -23.0619 -50.8031 -109.213 270.672
15256 1 -5.43276 -79.4706 -20.0727 -42.0385 80.6306 -241.666 -165.781 -75.4792 57.8145 -313.805 434.69
12203 2 -5.91478 -79.1398 -16.5653 124.642 -50.9065 50.9234 105.323 -24.7902 -21.0521 -114.023 244.464
9887 2 -1.61609 -78.7596 -20.1502 84.782 -26.0703 71.0586 -5.28362 52.5618 -4.00705 -118.318 139.196
8075 2 -1.81343 -78.9141 -14.9744 38.7204 -12.9583 109.377 31.4607 -56.5337 -58.4635 -124.57 184.732
9684 2 -1.11817 -83.9114 -19.8916 103.832 -48.8504 97.7855 25.9967 -17.515 70.1868 -114.54 200.379
9958 2 -5.94694 -83.0254 34.873 60.6419 -38.9723 89.6378 74.4218 2.62187 -40.5015 -107.007 187.643
17009 2 1.29814 -84.1001 -19.0754 28.0368 -20.3979 126.542 33.5058 9.01327 54.519 -116.185 171.315
17101 1 1.77588 -83.6817 -17.5392 -165.181 48.2189 -124.583 -82.5645 -32.8349 -52.762 -301.499 265.633
14952 2 3.28929 -83.2177 -17.6259 162.776 -116.683 44.1824 33.3292 37.7998 24.3128 -112.76 261.557
9616 1 4.7947 -82.5286 -17.5766 -437.637 387.317 -112.074 -23.1185 -37.9833 -39.3114 -320.024 727.004
12191 2 0.703882 -82.4912 -17.223 94.0865 -9.4269 74.613 5.92814 -24.9384 5.789 -119.285 105.595
14995 2 4.58986 -81.1474 -16.7519 225.392 -138.619 -31.7559 22.0789 60.141 6.59856 -109.41 342.737
12565 1 0.739448 -80.8705 -17.3397 -148.143 60.5742 -140.136 33.2574 34.5897 23.935 -291.723 224.904
22239 1 4.36847 -80.7578 -15.2494 -460.468 212.085 106.917 -30.3041 -118.606 -20.9266 -315.541 662.516
24679 2 2.03086 -80.6314 -18.3612 87.6312 -64.9164 55.2639 -32.582 3.31932 -4.56279 -117.618 150.536
24772 1 2.32593 -80.226 -19.933 -162.385 134.958 -126.862 44.6664 141.752 -41.8316 -309.259 388.109
14804 2 0.93609 -80.3487 -15.8518 135.655 -55.9 65.1203 -2.76557 -40.4495 -21.474 -120.378 185.667
12211 2 -0.447898 -80.3647 -18.2601 58.0074 -8.81278 65.5487 6.1733 -24.0842 -4.49323 -121.908 83.3113
12304 1 -0.75754 -80.0178 -19.825 -125.361 -10.0193 -114.745 1.85209 -40.7012 -39.8439 -299.192 148.103
10066 2 0.786046 -79.8858 -20.318 37.3863 -31.8394 61.5796 -24.4095 -36.2944 32.4932 -116.086 126.329
12407 2 3.32644 -79.5029 -15.1677 212.831 -63.3474 -31.8271 18.7443 55.2019 38.0377 -109.754 288.27
9891 1 1.85115 -79.0512 -15.4846 -329.875 114.271 -68.0485 -32.5185 -67.9764 -41.309 -304.648 414.347
5086 2 3.35337 -79.0715 -20.1851 137.487 -99.3448 34.032 19.5478 -68.5609 14.7001 -105.821 241.22
7218 2 2.78797 -81.3957 -20.9705 89.6614 -97.2006 81.8534 8.52993 -73.4682 52.1022 -109.323 240.986
9622 2 1.62294 -78.2675 -16.8581 113.142 -34.7522 43.7614 12.4822 44.0767 -5.23092 -117.748 151.007
12004 1 6.3565 -84.25 -15.4628 -471.459 262.549 120.871 147.8 -126.167 -44.417 -330.869 757.664
15160 1 8.68282 -84.1816 -20.8171 -350.994 433.725 -103.774 79.4071 -148.393 65.8686 -341.702 762.166
12176 2 7.45928 -83.6089 -20.0048 220.786 -246.817 56.5907 -16.7024 25.2374 -8.5624 -97.5105 414.49
14699 2 5.83895 -83.4532 -16.8121 234.407 -178.422 -10.5458 -22.6698 31.4175 16.0651 -103.981 366.855
14799 1 6.11204 -82.8015 -20.3075 -454.477 501.141 -150.827 -19.3196 29.8259 -42.1275 -334.627 851.087
4518 2 5.36842 -82.3104 -19.0485 219.241 -224.468 106.359 9.39541 -12.4796 24.4284 -102.181 402.561
19763 2 10.1225 -82.2433 -17.1669 155.708 -127.204 0.279448 -66.3913 10.7234 -4.55258 -100.839 271.763
19693 1 9.46471 -80.8195 -16.6886 -338.345 298.139 44.4629 92.5788 47.3528 -26.6789 -329.996 585.3
14705 2 7.87151 -80.6158 -16.4019 223.894 -158.53 -57.9311 18.9787 -11.9051 20.453 -102.996 347.358
17291 2 10.1992 -80.2595 -15.2919 140.076 -94.0004 -31.5579 -61.8643 1.1456 15.3412 -101.464 237.204
17412 2 9.90969 -79.8026 -17.8758 119.247 -144.745 36.0811 -28.5419 -29.5419 4.27007 -100.939 244.479
17390 1 7.07655 -79.697 -15.2943 -412.656 169.339 168.998 -74.4908 -55.7716 -20.5972 -326.805 604.79
17283 1 10.4361 -79.5562 -19.4324 -180.126 282.01 -143.304 -25.4111 53.1029 80.1038 -338.697 477.028
14682 2 9.4135 -78.7208 -20.3881 119.995 -136.003 62.3122 3.09525 -36.8049 -39.5982 -94.1591 250.783
22085 2 9.86816 -83.112 -20.8713 122.476 -184.42 46.6608 -7.80362 81.9638 -37.1082 -97.4151 318.016
19497 2 6.66181 -78.1899 -15.6396 168.052 -77.1527 -80.9705 35.8077 42.1911 12.1368 -104.582 265.904
29766 2 10.8439 -80.9327 -20.0696 67.1283 -146.149 68.0344 16.382 7.10894 -48.5909 -98.6333 231.779
4700 2 5.80496 -80.4218 -14.7051 212.059 -92.6697 -47.9265 42.987 49.4604 -1.65993 -105.213 306.786
19976 2 14.4222 -84.2306 -19.6302 158.126 -87.2982 -23.9118 -76.8098 0.0779139 -77.0275 -96.5577 290.161
19395 1 12.8982 -84.1439 -19.9881 -285.901 181.512 52.098 202.854 -42.8824 151.563 -343.522 610.42
22288 1 15.8316 -84.1736 -20.4028 -192.666 150.372 1.24415 101.182 -14.4684 227.167 -341.624 524.323
17493 2 12.0313 -83.7413 -18.6896 101.297 -71.2311 -14.97 -101.779 51.976 -33.9082 -98.9116 256.624
19872 2 12.0318 -83.4246 -15.9242 105.607 -83.9319 15.6452 -102.19 63.4383 -50.8514 -101.013 279.51
19691 2 16.1487 -83.1626 -16.4493 104.31 -86.1386 21.8187 -77.5436 -32.3991 -34.0409 -100.872 228.1
19696 1 11.5946 -82.7837 -17.4485 -189.38 192.45 -10.0032 187.024 -107.295 44.7056 -333.237 504.921
14798 1 16.523 -81.6502 -16.833 -170.984 113.449 -75.1142 151.984 64.295 111.934 -342.093 426.746
12450 2 12.6075 -81.5244 -17.4458 99.132 -105.004 -13.81 -69.1059 42.223 -56.1696 -100.36 245.992
19679 2 15.0781 -80.9256 -16.8918 118.819 -54.4735 -6.68145 -74.901 6.89763 -66.7009 -95.274 233.137
19767 1 13.5784 -80.5435 -16.4916 -206.16 105.713 28.1211 112.693 -74.1684 98.3093 -339.547 403.34
17321 2 14.0747 -79.1458 -20.4848 99.8663 -152.183 101.727 -18.5446 -49.242 -84.6817 -98.3258 306.301
19680 2 13.2726 -78.9491 -16.4043 80.4982 -43.0287 3.77318 -11.2301 16.8807 -0.90735 -96.8953 113.594
17471 2 11.7916 -78.687 -19.2884 72.3041 -135.74 94.5092 41.4555 -46.0207 -54.8193 -97.7504 262.526
19505 2 12.4866 -82.8871 34.8408 117.186 -112.742 22.1107 -45.9429 1.09177 -93.1806 -93.0513 269.127
19221 2 13.337 -81.2759 -15.1219 101.292 -59.5016 3.79726 -78.9205 64.1507 -45.2058 -98.9191 238.422
4794 2 21.2755 -84.3375 -16.6385 74.2353 -109.145 -9.35153 -46.0603 -33.2304 -57.6454 -105.684 211.975
16900 1 18.1027 -84.4501 -18.3334 -253.498 156.139 51.6144 130.67 13.7583 108.549 -327.662 472.283
17217 2 16.965 -83.9068 -19.3274 72.4681 -66.3473 0.845386 -53.623 20.2449 -90.5584 -100.083 221.168
19786 2 21.0178 -83.8667 -18.9928 101.346 -110.099 -33.7943 -30.5902 -15.7872 -95.0497 -105.619 255.06
22196 2 19.0805 -83.3958 -17.5718 119.858 -91.8185 -31.0309 -75.3898 -29.4736 -52.112 -103.118 251.871
19624 1 20.6506 -83.172 -17.541 -227.004 144.612 65.3119 101.002 61.1788 129.462 -326.664 455.008
19793 2 17.2406 -81.494 -18.3053 60.7867 -36.8848 24.8646 -64.415 -37.629 -105.177 -96.332 239.173
22087 2 21.2183 -81.6835 -17.1568 68.4221 -3.92355 -8.4014 -58.9684 -33.1063 -41.1869 -98.8715 156.163
29574 2 19.7465 -81.135 -19.8552 85.3854 -27.9545 -17.5691 -86.4914 28.9726 -113.952 -98.7082 275.123
15197 2 17.412 -80.9454 -15.6384 37.8957 -23.3781 61.4623 -41.3044 -16.8699 -12.4022 -94.8606 110.396
17209 1 18.0969 -80.9039 -19.5672 -91.4052 69.5594 -62.0339 120.381 -19.4925 244.802 -339.176 496.431
14715 1 22.5694 -80.7183 -16.842 -20.9141 -47.4263 5.13187 113.822 84.3251 39.7596 -342.213 258.868
14986 2 22.3796 -79.2376 -16.3295 5.08386 6.87238 28.4955 -59.6735 -51.7671 0.924716 -92.4763 138.688
24413 2 21.2825 -79.0794 -20.259 100.662 -44.5771 -8.75402 -47.4203 21.0018 -47.1949 -96.966 178.679
12186 2 18.0609 -79.3451 -19.1669 40.2095 -56.5835 39.1039 -50.0038 15.1333 -47.3748 -97.1056 155.513
19602 2 17.4261 -81.2557 -20.9277 38.4976 -57.7654 37.36 -66.7337 35.5527 -133.283 -98.5047 282.141
21985 1 20.7045 -80.3809 -20.9862 -215.246 111.757 -31.6455 172.975 -78.7089 151.131 -340.469 507.415
15179 2 25.6487 -84.4413 -19.3209 67.6685 -64.0669 -11.9535 -69.0049 -58.5668 -55.7587 -102.064 217.042
24697 1 24.2016 -83.8432 -18.9367 -119.257 155.176 65.0406 80.7496 92.2958 135.514 -323.067 398.636
26911 2 24.119 -83.6192 -17.317 58.06 -76.9717 -23.8205 -27.8895 -16.8338 -68.1472 -104.874 176.06
29674 2 28.4601 -83.6248 -15.83 82.8555 -54.0181 22.7361 -40.434 43.5494 -28.4064 -95.7402 164.727
29846 1 24.4221 -83.0016 -15.8216 -126.355 202.701 -134.093 48.7475 -3.351 80.1964 -339.374 370.595
22361 2 25.9831 -82.8028 -15.9096 92.2709 -93.9231 33.1448 -23.4938 34.1493 -44.4921 -94.8196 195.572
24956 2 23.7817 -82.4676 -19.5951 43.8693 -75.1559 -19.1552 -27.5547 -32.0219 -64.0329 -104.28 168.203
27455 2 28.1608 -82.2494 -19.95 81.5274 -57.8326 9.67773 -58.0473 -34.1302 -54.2382 -97.2089 192.351
19659 1 27.4863 -82.3497 -16.0414 -164.553 114.626 -67.6244 47.6044 -120.092 49.8587 -348.583 343.218
22254 2 23.4098 -81.708 -15.8739 7.68206 -45.4978 70.166 -37.3738 -24.452 -21.6707 -95.949 132.092
29841 2 27.7778 -81.5731 -17.4528 78.315 -39.3581 5.95412 -21.8126 46.9694 -40.8179 -94.1879 153.662
4712 2 25.7764 -81.0551 -19.0768 51.247 -15.7223 -35.0698 -9.05599 -25.8309 -66.373 -99.7134 147.033