ITEM: TIMESTEP
200000
ITEM: NUMBER OF ATOMS
29952
ITEM: BOX BOUNDS pp pp pp
-2.5141811457830563e+01 3.5127105799817414e+01
-6.6624112248789487e+01 7.6609406590789490e+01
-2.0959296319110130e+01 3.4827149464552392e+01
ITEM: ATOMS id type x y z v_StrAtomXX v_StrAtomYY v_StrAtomZZ v_StrAtomXY v_StrAtomXZ v_StrAtomYZ c_PEAtom v_VMS
27573 2 -22.4727 -62.3692 -16.4288 22.462 -116.671 61.6087 -49.0154 -5.09448 -76.886 -92.463 226.621
22574 1 -20.9175 -62.3077 -17.0536 -22.4593 218.176 -123.761 104.336 -86.3493 141.721 -348.377 455.878
27371 2 -21.0164 -62.675 -18.5981 -5.72419 -102.555 80.6975 -28.7295 35.2159 -14.7792 -90.0398 179.067
2608 1 -23.3065 -61.4927 -15.3835 -169.811 309.795 -126.247 92.3259 64.3791 181.39 -345.905 589.694
22558 2 -20.4563 -60.7919 -16.731 40.4933 -117.625 35.3871 -14.6842 22.3325 -94.2971 -96.6452 230.302
24854 1 -24.0208 -61.2777 -19.9127 -80.2811 117.664 4.79026 -20.1549 -23.1731 -39.2486 -342.386 192.434
27543 1 -21.4192 -62.9149 -20.1552 -44.0094 147.734 -52.0492 13.527 15.6866 -37.1379 -354.889 209.276
2190 2 -19.9669 -63.502 -16.3638 -3.52022 -32.9828 19.4147 -72.6428 35.9199 -86.0818 -91.7873 209.766
2780 2 -22.6533 -61.899 -20.3695 30.9032 -62.5675 8.03942 -1.53373 -7.00016 23.1649 -94.3362 94.2673
202 2 -24.8549 -61.9048 -15.1594 103.208 -125.577 39.0514 -10.9678 -33.019 -68.7978 -93.4115 244.155
27934 2 -21.8865 -64.4828 -20.5434 9.53469 -28.7881 -29.1019 0.236995 6.20914 -4.51672 -87.201 40.716
27526 2 -19.8184 -65.731 -15.0165 17.5601 13.3549 -50.5628 -38.8685 -2.34738 -35.5873 -94.5343 112.783
27848 2 -24.9116 -62.6612 -19.7336 50.8133 -54.1993 -7.55501 30.1961 -2.82424 37.2973 -93.0519 123.441
7320 2 -23.8805 -60.4041 -18.4696 27.5487 -118.996 46.6002 -17.4843 -0.297803 -31.2656 -97.614 168.761
29884 1 -19.0124 -64.3501 -15.3522 -3.81702 -21.7996 90.6001 133.005 14.0788 144.014 -344.663 356.121
5219 2 -17.6126 -64.8823 -15.9396 -2.20126 7.18719 -46.3263 -64.9931 -40.6057 -36.0793 -92.6313 154.833
7877 2 -15.2265 -61.2753 -15.8612 101.962 -93.6924 -35.7042 8.6688 -44.8413 -114.595 -94.2632 275.593
27639 1 -16.1773 -65.4407 -15.3481 -9.56741 -32.1289 81.8679 89.575 100.496 55.1819 -347.064 272.831
5000 2 -15.3206 -64.0449 -15.2202 56.8285 4.05291 -73.8719 2.63258 -44.4635 -68.7183 -92.6021 181.902
27754 2 -18.5868 -60.6782 -14.9129 27.5658 -70.5408 -1.45849 -29.5855 -19.934 -83.1357 -97.0354 179.367
19 2 -12.8174 -61.0562 -20.1523 -1.00034 -78.1517 86.5687 -62.4266 25.5142 0.433917 -95.4649 184.449
7541 2 -11.1753 -61.3293 -18.0138 12.2605 -57.4856 41.4631 -78.4729 0.927793 -22.7618 -96.6793 166.688
10070 1 -10.7505 -62.5436 -17.0504 -28.1631 132.103 -110.493 148.796 21.9746 18.9641 -344.125 338.536
9869 2 -9.10166 -63.7109 -19.9296 -14.5668 -42.6908 37.3811 -43.4574 36.6237 -34.1928 -99.3618 134.713
5096 2 -9.29451 -62.2348 -16.3385 36.2986 -70.027 74.818 -53.6494 18.5111 -0.589328 -96.4649 162.936
24766 2 -10.5839 -63.942 -17.8017 2.92963 -27.1418 38.0515 -55.7226 -18.2234 19.2477 -93.3149 120.9
14775 1 -9.61833 -64.793 -18.7517 -11.5093 26.2801 -7.84292 57.346 -46.7087 -11.267 -341.734 134.516
9859 2 -8.24269 -65.0922 -17.8897 -21.9671 -26.6481 24.3305 -38.5936 42.8967 -19.2402 -98.5644 116.11
5201 2 -11.7319 -62.7886 -15.7141 26.7281 -63.3084 16.4594 -29.5015 -8.68925 -59.4258 -94.5488 143.942
10081 1 -8.20277 -61.7898 -15.2119 -91.6799 102.221 -125.566 55.4205 -81.593 22.2898 -339.353 275.669
118 2 -8.169 -61.1459 -20.5179 -37.2674 28.9293 34.1268 -8.96098 22.4394 -42.1598 -99.8483 108.797
10162 2 -10.162 -66.1779 -19.3959 11.8588 -11.8556 -21.4362 17.6833 54.8549 13.278 -95.3453 106.656
10110 2 -7.23166 -60.7286 -16.0063 -10.9999 -7.57877 79.4855 -16.4044 49.2743 -21.7775 -97.9684 131.923
9889 1 -12.3049 -60.4127 -18.7638 -17.9456 170.786 -134.666 104.151 -30.0008 37.6991 -340.746 332.833
24880 1 -6.66498 -65.4065 -18.0222 109.585 -23.5651 -53.6478 90.1985 -163.699 65.9808 -332.079 374.833
4986 2 -6.28501 -65.473 -19.6032 -66.255 9.49799 23.8003 -58.0459 64.9038 -31.4201 -102.183 180.925
2710 2 -5.43437 -61.3628 -17.7714 -61.4959 8.53812 87.6322 -14.6968 67.5271 -19.5449 -97.1299 179.37
7673 2 -5.79962 -64.0641 -17.5964 -48.589 -29.2672 60.4135 -39.1942 93.9505 -12.6776 -101.125 204.254
12650 1 -4.99809 -62.8352 -18.2834 63.514 0.194046 -105.838 35.6376 -172.673 51.0616 -338.017 350.78
29802 2 -5.05083 -63.2611 -19.8406 -38.5511 2.84309 41.8765 -13.6439 65.7403 -60.5263 -98.2082 171.368
12590 1 -2.38592 -63.8328 -16.8366 -26.2962 -26.4656 -10.764 32.4168 -87.778 67.7848 -337.754 200.738
15069 2 -3.42502 -63.0906 -17.8607 22.3197 -3.84756 28.0431 -15.9379 70.9902 -39.5774 -95.8528 146.449
10172 2 -3.26846 -64.5687 -15.7144 -10.1549 15.4446 18.3672 -53.8331 44.4335 -24.0249 -101.528 130.718
15093 2 -1.6144 -62.6008 -16.0395 -1.1152 29.2869 -24.0135 6.9665 3.17046 -37.2471 -96.8189 80.5144
7582 2 -1.68056 -65.0744 -17.5342 -11.8209 -1.23446 28.0548 -4.94193 20.8909 -30.8588 -99.4259 74.2923
10072 1 -5.75167 -64.4294 -20.8192 144.069 0.666996 -125.096 102.036 -112.328 87.424 -335.351 382.663
12672 2 -4.80052 -60.4102 -15.2895 -32.91 -11.1116 47.8799 -17.3814 47.9036 -16.6551 -99.1087 117.745
2690 1 -0.569128 -61.5199 -15.4304 8.1758 -83.3204 38.2741 -61.9979 22.4926 63.0085 -346.733 192.329
10100 2 0.769035 -65.4236 -17.877 -21.5469 -13.1762 43.3826 58.1262 -34.0143 -67.9369 -97.6674 176.623
17668 1 2.19302 -65.2149 -17.1106 27.7409 -6.92329 -83.0224 -128.572 100.66 129.413 -344.059 373.984
15176 2 3.01222 -64.1975 -17.9771 -15.5705 9.5339 51.4659 87.6885 -71.2444 -86.9641 -93.1207 253.82
22477 1 3.4778 -63.6289 -19.419 14.0285 -18.2869 -22.2314 -154.426 100.112 176.523 -342.96 443.032
19794 2 1.87874 -64.5401 -15.667 -25.3352 4.72482 46.6212 66.2538 7.41496 -31.0844 -95.8834 141.953
17686 2 0.0445407 -60.61 -16.6706 -5.23253 3.08261 13.2104 60.8085 -35.0096 -51.8802 -92.7904 151.989
17477 2 4.28974 -62.2037 -19.1915 -33.4766 -2.23355 26.5356 60.2255 -26.6242 -26.0456 -98.3762 133.213
22458 2 4.20606 -64.8219 -20.1947 -54.4643 -0.329859 -14.8267 74.5387 -62.4602 -85.1588 -95.6667 229.094
17837 2 2.11461 -63.5775 -20.2984 5.0098 -6.77825 19.3557 80.416 -34.6332 -87.5245 -95.3049 215.625
7215 1 -0.206495 -61.086 -20.7354 -109.373 114.014 -25.5617 -7.48463 0.536032 106.408 -349.71 268.962
15074 1 -0.625011 -66.2444 -17.9398 69.6242 -10.8214 -123.318 -40.5754 -21.1475 73.1797 -334.97 224.774
12312 2 0.0535243 -60.4018 -19.3094 22.222 -51.2763 43.1507 28.5482 -11.3098 -32.5971 -92.9854 115.735
15061 1 5.18199 -60.6945 -18.7011 24.6057 63.1574 -131.377 -36.0427 -18.3587 -68.8788 -335.255 225.768
14859 1 5.18972 -66.133 -20.6331 89.249 13.5429 -43.8842 -113.533 111.788 146.01 -349.939 391.781
19999 2 7.96428 -63.1816 -19.7948 23.333 -44.7346 9.08895 26.7892 42.9233 -5.61319 -96.5935 107.895
113 2 9.12333 -61.7255 -17.8292 15.8861 -64.3675 80.3092 19.4125 57.5455 -9.77643 -96.7397 164.66
20091 1 8.10226 -61.7954 -19.0922 -72.0642 148.971 -98.1689 -67.8527 -124.293 -17.6156 -338.712 341.17
17866 2 6.63838 -61.2715 -18.54 28.1802 -65.7705 66.446 20.2044 41.1688 27.909 -98.2426 150.107
16907 2 9.87759 -61.2437 -15.4244 -1.71215 -36.574 54.0163 26.7337 3.23064 -40.8575 -99.1025 115.962
16943 2 8.03027 -65.8135 -15.9772 2.287 -5.22025 16.9958 90.2865 0.305225 -21.6407 -89.2333 161.998
22287 1 10.403 -61.4891 -16.9835 2.42724 61.5121 -112.695 -8.51923 -33.6813 41.4902 -338.872 179.809
22674 2 8.53043 -60.6536 -20.2066 47.5737 -80.9108 33.1762 44.5765 36.4205 8.98896 -100.072 158.268
22377 2 6.62187 -65.4951 -20.5015 -39.826 -16.4123 5.88257 54.1398 -50.7491 -52.7119 -93.2389 162.551
12406 2 11.2539 -65.2974 -17.3998 15.0498 -46.2175 6.63057 26.9669 -11.9392 -19.6962 -93.843 84.1537
22497 2 11.3138 -62.7649 -16.9577 4.58269 -15.8203 37.5476 -22.7287 -4.93329 -20.0637 -96.7707 70.7531
19909 1 12.1156 -64.0933 -16.7172 -16.9331 61.929 -54.1146 20.9465 61.7648 4.86772 -341.014 152.859
14970 2 13.5953 -64.118 -17.3985 -7.6618 -40.3818 14.4344 -6.57976 -44.3604 0.363727 -98.1225 91.1902
10179 1 15.2446 -64.0569 -17.371 -13.0325 82.2639 -87.0725 -17.7009 36.4858 11.0582 -340.189 164.072
17474 1 15.5258 -61.6768 -19.3597 -48.0675 13.1964 -0.392349 -44.626 85.0717 24.926 -344.251 180.708
22188 2 15.6895 -62.6003 -17.9317 18.7816 -16.3545 43.8858 19.4127 -21.1287 -23.9263 -94.791 83.271
19865 2 15.4907 -64.5165 -15.8271 31.5131 -66.6609 17.1525 16.3017 3.96135 29.1443 -97.3222 108.752
17288 2 16.1569 -65.1552 -18.1893 21.0287 -56.256 29.2673 15.6092 -24.1583 3.8418 -97.3546 95.9354
15204 2 14.5544 -62.6063 -20.3119 4.61917 -25.4797 24.9901 18.6346 -12.7536 -1.74755 -95.7412 58.9316
15155 2 12.2207 -64.3929 -15.1295 1.98779 -30.7718 3.34903 14.3373 -38.8606 7.47117 -97.3797 80.2134
17577 2 16.8628 -61.4444 -20.1644 64.7192 -35.9556 -11.7637 23.7706 -43.0422 -15.8776 -95.6029 127.65
12471 1 16.1673 76.6395 -18.8303 -33.3641 164 -44.7409 -12.3406 59.5445 -10.0954 -341.343 229.623
19699 2 12.8847 -64.7339 34.9584 8.43441 -70.4235 39.3616 2.15295 28.9751 -25.8196 -95.1516 118.939
19585 1 12.1145 -66.1971 34.7991 -26.945 178.923 -69.0598 21.5967 -78.7002 54.7424 -351.198 286
12874 2 19.6505 -63.4713 -17.061 55.0393 -73.1589 29.4768 70.798 -1.82296 -9.72765 -94.1165 170.711
27469 1 20.0074 -62.8963 -18.5369 -52.1707 132.025 -116.549 -110.821 -62.7707 30.2222 -344.837 318.332
22650 2 21.3871 -61.9779 -18.5221 32.0444 -85.4827 74.8621 34.7742 65.8429 3.05743 -96.9793 193.235
27450 2 19.8566 -64.2052 -19.4979 13.079 -34.797 28.5806 52.4194 3.91581 -9.41712 -93.876 108.766
19685 2 19.1063 -61.7184 -19.1387 48.8737 -68.3159 43.9079 27.5529 21.8053 -19.9768 -95.903 134.452
25072 1 19.5065 -63.9613 -15.5141 -140.227 123.379 -9.02355 -133.091 68.3374 -0.061363 -346.951 345.35
24868 1 18.4305 -61.0773 -20.4498 -98.9207 123.687 -41.8831 -11.5224 23.9348 27.6302 -339.713 210.992
25141 1 20.1355 -65.4463 -20.4817 -28.9559 59.2493 12.0084 -68.4992 39.138 29.337 -351.945 164.617
19870 2 22.0053 -61.226 -15.7843 77.2995 -82.9782 -11.787 9.59732 26.1041 5.81555 -100.877 147.543
27203 2 19.2731 -65.565 -15.2398 36.6534 -70.8442 2.89004 34.2748 -10.8161 5.13371 -93.0639 114.108
27107 2 22.9357 -63.8354 -16.5384 89.5812 -45.6895 -58.0183 9.78875 26.634 14.215 -96.1272 152.117
22550 1 22.3098 -62.8168 -15.4948 -198.187 115.262 74.4785 -78.2831 -46.6722 -16.1693 -338.687 335.908
26983 2 18.4173 -63.0076 -14.7877 50.6015 -43.3266 16.8411 25.7579 -34.4786 43.3216 -94.4212 134.083
27352 1 23.8222 -65.1794 -16.7786 -112.071 80.1322 76.7464 -20.8926 -11.851 -83.151 -348.072 242.438
25102 2 25.6322 -60.8722 -17.24 19.3187 -93.1601 33.8287 -29.6463 27.9676 3.18273 -99.268 139.67
29773 1 26.5559 -62.2016 -16.8099 -150.295 219.545 -61.8711 42.7763 -33.4445 -74.0909 -338.646 370.42
27851 2 24.7455 -64.9252 -18.0143 8.9426 -59.412 11.9012 -2.87188 -11.651 42.4875 -92.4684 103.59
27834 2 25.9181 -62.5763 -15.3863 74.118 -88.6436 -44.255 -20.7384 48.8349 23.2587 -102.776 176.931
5056 1 26.0755 -64.6095 -18.8581 5.02379 153.081 -77.4873 53.1821 52.1133 -60.7136 -353.28 261.985
22677 2 25.7218 -63.7998 -20.2157 17.7673 -108.431 70.8221 -31.2496 -15.4261 -8.16292 -90.5414 171.113
27372 2 28.0584 -61.7212 -16.4568 133.63 -131.068 18.0437 -12.2132 -4.71516 20.7502 -96.3581 233.743
7580 2 26.7278 -63.4873 -17.8025 44.8397 -102.002 53.0081 -17.3746 -10.0766 56.5116 -93.1147 183.357
22296 2 24.6373 -65.5267 -15.4443 35.0309 -53.2903 -27.4361 13.4705 17.8205 22.4821 -93.9175 95.9114
24958 2 26.6947 -66.1084 -19.3448 13.9174 -47.9392 -17.696 -36.1652 -29.2409 45.3378 -87.7074 124.602
27052 1 29.1896 -61.7366 -15.3226 -275.693 207.208 42.6703 44.7797 27.663 -21.5106 -337.831 436.474
152 2 31.317 -62.7735 -18.4324 8.63996 -121.42 93.2606 -13.4848 -56.9209 4.06274 -91.1399 213.066
27561 2 30.5845 -62.1958 -16.0017 95.7577 -119.786 18.3568 -41.4046 -35.4216 22.6133 -94.7664 214.96
25239 1 31.5181 -62.0548 -19.8987 -44.8914 193.943 -75.3105 0.854124 54.7687 -5.65092 -348.791 272.634
24663 1 31.6239 -63.1631 -16.869 -23.5948 206.197 -162.089 46.6195 78.7768 -11.8151 -351.153 359.674
19866 2 31.5941 -64.6854 -16.2841 -6.69158 -46.1134 43.0799 -40.101 -8.43171 11.4473 -90.9958 106.883
25126 2 33.1303 -62.5428 -16.5544 34.0158 -106.841 92.7498 14.0578 -23.3846 -9.70721 -91.7184 184.607
20065 1 33.7801 -61.8222 -15.2567 -160.225 192.258 -79.7904 -8.54018 41.0739 77.7297 -346.258 354.638
5004 2 32.8855 -62.5297 -20.516 30.2083 -65.5202 -11.2703 1.39062 -23.7169 9.78766 -95.2689 94.3102
20279 2 33.5919 -65.0264 -20.5785 2.60451 -9.71991 -42.4337 -11.8783 -37.3558 -11.3061 -92.915 81.3536
22588 1 31.8687 -66.1208 -15.4193 -6.608 101.199 -14.5862 83.8141 -43.3778 -83.855 -352.822 245.683
22178 1 34.2049 -63.4743 -20.5765 -78.596 104.341 58.1325 -8.5101 63.2631 -51.5295 -346.338 217.573
2215 2 33.5042 -66.2342 -15.1784 26.2559 -65.818 12.1383 -68.9024 33.2718 37.254 -90.401 170.6
7757 2 31.6786 -60.4214 -19.8917 24.7824 -57.7974 25.0665 7.36582 -38.4307 -5.10834 -93.0408 107.307
4865 2 30.4359 -62.7395 34.8321 82.6271 -121.013 5.9375 -2.7391 6.6378 0.29623 -92.0333 178.573
4807 2 -23.3578 -59.9385 -15.9648 59.7223 -115.563 60.5471 -51.3618 -30.9078 -77.0268 -95.2966 243.823
27640 1 -23.5674 -59.2021 -17.4369 -68.0281 195.593 -105.268 68.141 55.7526 101.927 -339.68 367.59
26985 2 -22.4897 -58.0969 -18.0013 58.9581 -87.0535 33.8388 2.41656 -14.2156 -31.0275 -98.3732 147.63
307 2 -22.9451 -55.4692 -18.7023 58.9059 -52.7332 27.941 -2.19852 -31.0546 13.8837 -97.2198 115.979
5376 2 -24.0092 -57.6508 -19.8754 19.6559 -117.37 47.7582 0.623105 -38.6537 -12.2327 -99.7698 168.371
2594 1 -22.6826 -57.0308 -19.1611 -116.49 181.144 -80.988 -24.6537 81.4012 -3.65965 -336.524 317.84
27641 2 -21.4747 -56.8845 -20.164 55.5517 -126.331 71.6442 8.47868 -41.3227 -5.44153 -99.7225 204.192
25063 2 -20.6452 -55.517 -15.6732 28.8806 -97.6011 33.9059 -10.0703 -4.37991 18.999 -97.8718 134.548
25044 2 -19.5912 -58.2024 -15.675 -2.59994 -16.278 36.7943 -29.2281 -14.725 -29.6406 -95.1583 90.149
27595 2 -24.8296 -56.0638 -15.653 57.2814 -84.5255 38.9407 1.91245 -44.0398 -14.5088 -95.577 155.903
2758 2 -24.797 -58.1459 -17.2049 44.8425 -87.8856 59.8279 -36.1013 -66.3862 -14.2296 -96.5772 193.827
4994 1 -19.5213 -56.6031 -15.1096 48.4417 64.2212 -90.5553 59.0743 34.1038 -4.49317 -342.673 189.16
4983 1 -19.2872 -59.7695 -16.1203 -70.8971 126.854 -47.1245 31.7198 18.6549 189.056 -342.13 382.438
4993 1 -25.1705 -58.5094 -20.5944 -166.239 242.083 -85.2947 4.4822 -1.14138 63.7741 -336.613 390.503
27619 2 -24.6785 -60.0293 -20.7536 55.4677 -65.4779 11.0025 10.9454 4.25202 -22.7115 -98.0587 114.84
5105 2 -13.4981 -60.4565 -17.6803 34.9863 -118.674 39.8565 -37.3014 4.85654 -46.8623 -97.236 187.661
5196 2 -18.957 -57.3986 -20.5931 91.2996 -158.626 67.0328 -27.7686 -20.1495 -28.1569 -99.713 250.792
27458 1 -14.5568 -59.9858 -16.5325 -187.066 242.935 7.01023 21.8716 9.16741 163.787 -342.727 470.404
192 2 -18.2001 -59.7871 -17.3031 49.0198 -113.433 47.1475 -18.5133 -44.978 -108.058 -95.5962 261.184
5180 2 -16.8427 -59.7379 -19.7931 57.5145 -133.856 62.6112 -46.8125 -22.0249 -39.9713 -96.2446 224.603
2700 2 -18.571 -55.1891 -19.3504 28.4834 -68.6609 69.4584 -24.801 -43.3505 22.0131 -95.6848 155.027
2407 2 -15.6813 -59.2063 -17.4568 115.489 -147.029 31.4856 -41.0645 4.37859 -78.2609 -95.4394 278.227
5177 2 -17.4274 -57.5243 -18.4665 54.2883 -119.65 56.4847 -46.5446 -33.6284 -25.2782 -96.8896 206.034
5091 1 -17.0302 -59.0858 -18.2804 -147.565 293.772 -120.197 99.3143 48.9868 158.195 -342.349 543.429
7789 1 -17.8968 -56.6212 -19.698 -114.263 243.813 -122.642 69.3507 91.7632 16.4641 -339.302 414.478
5280 2 -18.1839 -55.8024 -15.4844 11.2987 -68.2592 34.8578 -25.3414 -37.9855 9.50936 -95.6302 123.634
7509 2 -13.7023 -59.1132 -15.3949 53.8678 -83.7958 0.681722 6.50579 17.4468 -26.3282 -95.5291 132.582
7603 2 -16.6239 -56.3675 -20.6786 72.1455 -122.297 74.2594 -3.92068 -60.7463 -42.9648 -97.663 234.26
10273 1 -7.83287 -59.491 -20.6586 67.2352 10.8431 -66.7537 -1.78344 4.31815 34.2428 -333.809 130.998
10188 2 -12.3381 -55.8134 -18.5633 0.485762 -40.0007 62.2251 0.0914449 14.2373 -45.7686 -97.0852 121.832
5301 2 -12.008 -58.7494 -18.9126 20.9551 -57.3384 56.7278 -1.68852 17.8066 -42.3164 -97.4473 128.616
12665 2 -10.1788 -56.9863 -18.474 42.1129 -58.5585 30.9505 -10.2264 9.61851 -39.2894 -97.8144 119.824
5092 1 -11.6686 -57.3309 -18.111 -28.8696 69.2127 -86.9691 -17.8257 -26.1785 113.433 -340.106 245.57
7888 1 -8.69327 -56.8816 -19.0532 -40.905 117.593 -117.67 77.0635 -22.0733 50.4218 -337.578 264.739
2771 2 -11.9313 -57.6091 -16.4868 -2.95057 -59.2455 48.3306 11.7804 24.943 -26.7829 -97.0609 114.545
12887 2 -8.71883 -55.3203 -19.833 31.6366 -58.9611 45.3727 -48.2437 18.2001 -47.5888 -98.0961 156.241
10557 2 -8.61457 -58.256 -19.951 16.2343 -51.8427 35.7997 -29.064 -10.166 -2.61628 -99.1497 95.9895
15201 2 -7.72927 -57.3863 -15.0601 -19.1561 -11.9722 43.405 -8.51308 22.0391 -1.0372 -98.9812 72.0686
7583 2 -7.63551 -56.9691 -17.8429 -26.7637 -84.5943 101.775 -24.6584 55.0381 6.55348 -98.0604 195.807
10083 1 -12.3435 -58.3052 -15.03 4.4184 93.4475 -88.0261 -5.04164 -101.305 9.55985 -342.422 236.307
2678 1 -12.8953 -54.2737 -18.9208 -15.0169 182.278 -194.707 -6.73579 7.61047 -13.8147 -341.431 327.945
12959 2 -12.8895 -54.1503 -20.5034 1.43738 -102.719 106.921 16.3544 49.2483 -11.3498 -99.0122 203.537
7562 1 -5.79265 -60.1924 -16.5806 127.69 -10.0505 -185.69 56.1847 -117.365 43.9022 -339.949 361.373
2572 1 -6.8439 -57.2661 -16.4524 101.183 50.4859 -190.618 16.6034 -97.1963 4.30313 -338.75 319.607
5172 2 -6.29408 -59.0515 -20.24 -54.8334 -40.1715 51.5989 14.6049 10.8346 -36.1698 -100.7 122.062
14969 2 -6.052 -58.621 -16.7585 -66.071 -1.77861 95.3909 -25.6851 51.1373 -30.073 -97.017 179.889
5374 2 -5.94554 -55.8939 -16.1041 -17.8316 -49.4481 67.4701 28.6648 22.2596 11.9446 -97.7455 123.905
10068 2 -3.60987 -54.6477 -19.0154 45.3062 -118.579 87.28 43.4607 35.476 -6.36731 -93.9702 212.28
17845 1 -5.30556 -54.4645 -15.7164 -55.6928 103.313 -72.6584 -79.6163 -26.2961 -37.7888 -341.615 231.61
12548 2 -3.89598 -54.4086 -16.4886 62.5 -105.276 66.1656 42.9444 2.03187 21.2208 -94.0185 188.873
17690 1 -2.83704 -54.6468 -17.6802 -98.7961 229.742 -181.285 -88.4374 -32.8799 -24.5177 -347.909 412.738
7974 2 -1.97891 -56.1002 -17.6594 45.2113 -77.9199 72.3005 20.8574 21.2522 -13.3504 -93.1103 149.751
15175 2 -4.83945 -56.6283 -20.2975 31.9498 -49.8325 18.2746 53.8998 24.2001 -0.240883 -97.5512 127.396
7779 1 -4.19962 -55.1576 -20.4732 -103.213 149.205 -62.8046 -88.1568 -83.7794 62.5716 -342.156 333.565
7780 1 -5.11419 -58.104 34.8593 -28.5334 101.669 -26.81 -61.5169 -22.7229 12.1362 -335.56 173.422
7788 2 -5.18606 -54.0439 34.8185 39.9115 -56.2623 25.1162 18.7567 44.7097 -62.7046 -96.0815 163.992
10387 2 4.41449 -59.9497 -17.4582 -26.9706 -42.8284 92.4152 40.5534 5.40539 29.6621 -97.9408 155.108
7681 1 0.452167 -59.596 -17.8758 -23.6318 66.0167 -67.868 -88.4026 44.4454 48.3851 -348.585 224.397
15157 1 -0.452893 -56.6442 -17.5982 -45.4431 75.7087 -123.27 -12.653 -18.0622 34.3638 -347.842 187.524
17555 2 1.99885 -59.0731 -17.6031 38.5438 -62.1242 33.0243 39.3864 -15.7361 -9.76933 -95.4036 123.661
7882 2 -0.35081 -58.1996 -17.7528 3.57796 -14.6732 27.4041 17.6869 -9.41656 -21.2592 -92.5013 62.4179
20002 2 -0.0496803 -56.2205 -16.1092 24.0735 -33.131 64.5455 28.2677 9.89338 13.1808 -94.7702 102.164
10176 2 0.487012 -55.9162 -18.7056 42.4481 -41.0671 60.8922 17.5817 9.90442 -29.2689 -95.8828 112.459
17571 1 3.4793 -58.82 -16.8633 3.25525 96.5974 -151.496 -107.652 -18.0836 -27.5164 -338.728 291.761
24873 2 4.00213 -57.2314 -16.9888 -12.5797 -36.7469 73.052 20.5436 20.511 13.4816 -101.311 114.279
10062 2 4.09042 -55.2357 -18.7306 -30.3119 -15.4228 96.14 -39.7494 72.897 -8.59217 -101.555 187.703
10286 1 0.781918 -55.1097 -20.0406 -105.606 96.8957 -58.9038 -51.6212 -33.4893 42.9869 -336.763 225.018
17678 1 3.86857 -55.2718 -20.3706 80.2941 11.0729 -137.023 87.1603 -91.3213 46.6698 -331.863 302.191
17659 2 3.2227 -59.0598 -15.2653 -4.76712 -27.8357 70.8654 60.4841 7.75075 -27.8161 -96.2475 146.539
15355 2 2.26851 -55.3237 -20.5181 9.87053 -20.8849 32.6437 -9.50058 25.7003 -15.9999 -101.173 72.0083
12646 2 4.46411 -56.7812 -20.595 -48.3147 3.13476 60.9433 -44.9158 41.8008 3.4025 -100.114 142.45
14979 1 4.64681 -58.3772 -20.7578 72.3119 6.27958 -102.779 21.9455 -50.2936 -56.5269 -331.672 205.121
15159 1 4.85119 -55.8313 -17.4285 23.8519 43.2793 -132.88 31.3285 -86.2005 -24.0738 -329.011 234.439
17589 2 5.25051 -59.4937 -19.6967 -19.2652 -41.8851 54.4307 4.86887 20.435 52.4726 -102.795 131.125
17484 2 5.1832 -54.4464 -16.4758 2.69615 -15.5341 37.5667 -21.0311 8.59928 17.064 -103.91 67.8697
23009 2 6.30803 -56.3623 -17.8271 35.4966 -61.3166 36.1917 -1.25177 33.0585 29.5369 -102.582 123.859
12661 1 7.91121 -56.5696 -17.6614 -159.67 135.551 -35.0282 -1.10105 -8.2183 -57.3555 -331.754 275.625
17681 2 8.04237 -57.8913 -16.6619 79.3367 -55.9777 10.193 -4.36141 12.7504 -4.9931 -102.091 119.809
15442 2 8.5761 -56.7775 -19.1536 60.1293 -86.9856 74.6847 14.3704 -13.7663 24.2821 -98.2449 164.173
10184 2 8.59099 -55.253 -16.9382 87.0996 -37.1652 -42.2276 23.2315 19.2683 21.2726 -101.611 142.081
15146 1 9.84176 -57.163 -20.1901 -47.3519 165.615 -198.197 -91.3917 28.2311 34.2641 -340.03 362.221
20161 1 8.01873 -58.395 -15.1488 -170.572 90.129 15.2743 19.9269 -2.99618 114.107 -333.926 307.137
14901 2 10.907 -57.6723 -19.1131 13.6018 -94.011 78.435 21.6561 22.0038 -0.0993384 -99.0929 160.063
17261 2 11.0363 -60.1011 -17.5497 11.6731 -35.475 45.4026 26.014 17.7393 -1.49838 -99.6626 89.0611
9623 2 7.88744 -59.9774 -14.7016 52.4275 -35.1138 21.7174 -1.25048 -6.70786 -80.5329 -98.3497 159.733
17570 1 10.9602 -57.3624 -15.0523 -120.714 76.4827 -2.53082 -73.7568 -145.591 32.0896 -328.186 335.482
17372 2 11.1765 -55.7887 -15.0685 40.7372 -31.9711 -14.2791 6.4171 72.2093 -10.0763 -103.69 142.772
17496 2 15.1434 -60.1636 -18.9885 17.1167 -5.91214 3.79162 9.54626 -43.7142 15.4898 -95.9729 84.4216
27681 2 11.2428 -57.8051 -16.5744 44.8921 -62.0893 51.703 33.3238 31.643 14.2924 -102.597 138.449
17499 1 11.6058 -58.5931 -17.933 -84.2617 144.393 -129.261 -76.6468 -9.5228 -20.7989 -334.132 289.467
20084 2 13.1261 -58.7332 -18.4107 49.1543 -65.9002 43.7106 45.3093 -28.7059 5.98437 -99.0697 146.216
20129 2 14.5896 -54.9984 -17.0922 29.0208 -60.1778 64.5912 24.8734 -18.4224 -17.8911 -102.745 127.393
25070 1 15.7755 -56.0436 -17.5175 -34.0216 134.261 -178.952 -51.3346 -3.36442 20.0126 -330.566 287.845
22378 2 15.282 -57.5213 -17.7827 18.8293 -68.3217 87.6246 39.8722 -9.24661 4.12481 -100.189 152.972
19888 1 14.626 -58.6463 -18.7883 -43.3037 85.1268 -78.7958 -64.3476 69.2426 -16.547 -337.83 223.471
12663 1 16.2946 -54.3854 -20.1116 -7.7499 88.0845 -119.504 -7.39594 -61.8466 -27.4247 -331.232 215.125
22770 2 16.2737 -55.2792 -18.7824 0.258668 -57.8629 46.1125 16.6637 18.2943 9.51491 -103.251 101.264
276 2 15.0469 -57.9153 -20.2226 6.98065 -60.0591 65.7825 12.3414 -15.503 -2.37201 -99.2503 114.407
17276 2 16.8793 -56.2823 -16.3356 51.3974 -82.09 114.8 8.44348 19.2704 -26.588 -100.954 183.714
20169 2 13.1526 -54.0389 -15.368 56.282 -67.7327 70.6945 15.8737 15.9073 -37.8197 -102.241 152.252
27565 1 21.8819 -60.3932 -18.7313 -65.0944 212.919 -180.453 7.32416 -141.229 -33.6917 -337.301 431.363
24955 2 21.7953 -59.9282 -20.2741 31.6965 -107.356 56.8811 -14.215 61.6244 20.6196 -98.1565 191.693
25337 2 20.8716 -59.3141 -17.9558 31.5177 -78.3184 65.1071 -32.2601 48.2636 25.8345 -98.5506 170.276
22470 2 21.3423 -58.7338 -15.5609 90.9765 -73.9399 13.6503 -79.4512 -18.4327 11.389 -99.6098 201.917
24977 2 18.9649 -58.0791 -16.4231 83.0188 -82.5052 63.9292 -39.2836 -30.4596 9.25259 -97.3321 179.646
4931 2 20.8737 -56.7019 -17.2575 48.3282 -73.4861 40.6496 -56.0711 5.41785 -0.329825 -99.0188 153.24
29897 2 21.2156 -56.1041 -19.6802 14.3182 -65.641 60.0888 -9.13903 22.6071 1.54971 -96.6177 118.064
2800 1 20.8578 -55.4607 -18.2888 -97.2882 140.695 -94.2766 58.3798 -20.2582 11.6269 -338.054 260.364
29775 1 20.4873 -58.2124 -16.7779 -142.597 127.06 -65.7783 138.672 13.507 -28.7588 -337.842 344.412
20291 2 19.4256 -54.6309 -18.2793 62.5456 -79.6117 44.0759 -31.2703 3.88443 -5.46994 -100.253 144.889
15087 1 17.8545 -57.3103 -15.5086 -119.803 178.166 -191.486 -11.3623 35.8961 21.7629 -335.13 347.789
22551 1 22.455 -59.7852 -15.1297 -168.502 191.942 -8.88038 103.749 -18.5376 -1.40365 -330.421 362.205
27749 2 21.78 -54.2704 -17.7835 69.4455 -104.407 16.9863 -12.003 7.7804 -34.4848 -96.9571 167.446
27456 2 16.9561 -58.4897 -14.867 47.4695 -72.3446 76.3913 15.5043 -19.8177 -27.752 -99.9601 151.218
22181 2 23.3923 -59.9859 -18.298 50.8596 -128.858 70.3299 -13.0037 48.4964 1.50612 -99.2185 209.156
27466 2 23.8652 -59.3924 -15.8515 66.5024 -85.5239 -13.9896 -22.2422 35.7443 -18.7975 -104.194 154.049
22274 1 24.6429 -59.5374 -17.2716 -121.796 175.35 -36.1255 8.23891 -53.3297 26.9773 -333.537 284.776
27084 2 25.142 -57.9626 -17.5001 72.5168 -67.8812 -10.2496 35.8994 7.51999 -23.1075 -97.5825 143.455
25062 2 25.2433 -55.0344 -18.0031 109.998 -99.6187 -27.8255 15.3556 -11.792 -79.209 -93.8888 232.36
13 1 25.7634 -56.4982 -17.1791 -188.478 140.001 48.9227 -60.6708 17.0491 101.043 -341.944 358.916
24803 2 27.4213 -56.5982 -17.3251 104.226 -106.19 -9.785 36.525 -28.2922 -67.685 -95.8576 231.152
2496 2 25.5674 -56.1397 -15.6059 93.6977 -59.8237 -23.5349 4.72944 -11.5787 -14.2441 -97.4052 142.803
25058 1 28.8783 -56.393 -16.7576 -168.915 179.892 -42.2314 -12.8584 76.1602 124.761 -341.736 397.643
20050 2 28.8934 -54.8884 -16.1136 49.512 -68.7962 24.53 -3.53262 -20.4948 -35.0137 -97.4795 128.999
27299 2 33.3964 -60.2678 -15.2934 83.1535 -89.293 33.6461 -8.39807 -46.4579 -35.585 -95.2357 184.762
25257 2 29.179 -57.6101 -15.74 90.2925 -82.3735 -6.32555 -1.20566 -8.66209 -60.0782 -97.2109 183.094
22640 2 29.9366 -56.363 -17.9571 71.2213 -110.6 38.1612 -22.32 -58.8877 -42.0567 -95.4015 212.944
24962 1 34.574 -56.818 -16.8465 -120.706 168.436 -99.9217 60.5831 105.342 19.4989 -343.13 351.381
2986 2 34.019 -55.615 -17.8053 58.1013 -81.9838 24.6545 -38.6221 -9.8345 -2.25944 -96.3694 144.352
25079 2 33.3985 -57.6444 -15.915 75.3308 -85.8421 58.6415 -13.7225 -57.5775 -48.6495 -94.8405 202.919
5368 1 33.2653 -54.353 -18.5784 -164.196 188.212 -75.2408 21.2416 24.8789 16.9884 -342.173 323.778
472 1 30.791 -56.243 -19.2748 -131.94 211.79 -77.4786 92.2134 109.159 27.7756 -344.161 407.391
27929 2 31.8273 -55.0527 -18.8868 84.9023 -112.306 40.4442 -27.5542 -22.3002 -12.3424 -96.5823 190.596
22662 2 31.4508 -57.697 -19.5686 55.3018 -81.5297 32.1466 -47.6566 -59.3912 11.6754 -93.9712 184.106
27710 1 32.145 -58.892 -20.2182 -94.3706 135.374 -35.8559 25.3536 83.4376 -1.51678 -345.445 256.094
24966 2 33.7325 -58.6525 -19.8348 67.201 -105.037 21.0234 -26.4438 3.06528 4.08711 -96.9253 161.31
68 2 29.7784 -55.8656 -20.5131 49.5471 -109.576 23.6654 -32.4303 -24.7433 -18.4094 -94.4817 166.974
24963 1 33.0594 -58.8 -14.8114 -172.163 148.036 -74.7416 33.5805 101.885 69.9167 -342.961 360.574
27820 1 -21.7692 -54.3064 -15.4096 -163.393 224.973 -49.8781 16.112 3.9203 -9.9582 -339.969 347.492
27626 1 -22.4302 -53.9874 -18.418 -126.436 127.492 -76.7703 28.7658 39.3876 30.1666 -341.357 253.379
4988 2 -22.4306 -53.9322 -16.8212 79.7972 -102.906 46.0045 -13.088 -11.9165 -6.83972 -97.0913 171.548
2926 2 -20.7971 -53.926 -18.8208 35.1232 -53.3402 56.199 -12.6827 -15.7947 -15.0259 -96.8406 109.739
10357 1 -19.1557 -53.8412 -18.6638 -39.403 87.6913 -126.342 39.487 41.8494 20.7917 -343.994 214.452
10270 2 -23.2304 -52.8275 -19.1785 29.7847 -84.28 27.1198 5.54546 -48.5609 -22.593 -96.555 146.328
2887 2 -23.2529 -48.4228 -17.8803 66.4292 -43.888 -28.5971 -17.9309 -15.6349 15.3093 -97.5192 114.533
5084 2 -20.2623 -50.483 -20.0772 33.5555 -140.602 100.58 24.2731 -34.0142 19.0827 -98.6363 229.841
2788 1 -23.6462 -51.7009 -20.3028 -168.163 211.907 -75.562 -8.48497 140.392 1.94694 -342.597 420.941
27552 2 -24.1197 -50.2801 -19.6552 62.6075 -62.727 8.37023 -22.7651 -58.5208 27.4105 -95.9208 161.045
5556 2 -20.3048 -50.2066 -15.1149 35.7079 -66.7045 34.5203 15.3126 -10.2458 -28.5027 -94.8318 117.574
2774 1 -24.578 -49.234 -18.2847 -99.5431 56.9169 56.0984 19.6168 66.3715 -12.5518 -340.855 197.977
4912 1 -19.3482 -49.3107 -15.9917 -48.368 155.226 -107.802 -8.07683 -12.4654 33.1815 -343.895 247.079
107 2 -19.3132 -50.1577 -17.4006 11.6567 -84.7656 67.1184 12.8273 -12.8122 -11.8634 -96.6994 138.309
2424 2 -21.2519 -52.8176 -14.979 50.0195 -87.1145 17.3082 -19.5222 -3.71703 5.20944 -97.5526 129.059
2607 1 -19.0872 -50.6921 -18.9857 -20.2041 192.115 -183.11 -59.2219 48.6713 12.6045 -340.691 352.577
29858 1 -17.6768 -54.2815 -15.8018 -133.013 216.228 -43.6186 -15.8757 78.7299 -22.162 -343.782 345.782
10170 2 -16.0981 -54.0263 -16.1798 136.872 -126.849 -29.4894 13.1393 -40.1362 21.3807 -92.602 245.1
89 2 -14.1542 -54.0046 -18.007 73.9962 -101.976 43.4456 -1.97249 -23.1273 21.5883 -93.4965 171.866
5013 2 -13.4973 -53.6609 -15.5596 57.2025 -99.7012 -8.97119 -7.91262 18.2338 -20.5577 -94.1452 145.148
5303 2 -18.5565 -53.8668 -17.1532 33.8249 -85.8053 51.3541 -6.70354 -17.9637 2.09813 -96.4074 133.536
24978 2 -18.854 -52.2807 -19.1617 12.425 -63.2669 65.4944 -5.7344 -18.8977 -25.6201 -94.9271 125.307
27553 1 -14.706 -53.3692 -16.609 -236.812 219.87 36.3288 0.471771 36.169 -25.65 -348.401 405.37
2873 2 -14.764 -51.7203 -16.7197 99.4416 -90.6596 -21.0966 -20.4723 -19.5793 -4.10473 -92.7903 173.814
2960 2 -17.8097 -49.7696 -19.308 38.2984 -151.001 96.0136 26.0309 -33.0371 13.8236 -96.6458 236.582
7923 1 -14.5013 -48.1829 -19.0306 -190.571 272.719 -94.8627 -71.1318 21.6834 -26.7742 -352.19 445.194
15561 2 -14.3476 -49.2114 -17.8094 91.1449 -113.251 35.5886 -6.28423 -2.51382 -29.0331 -91.0157 190.197
2500 1 -14.3415 -50.1125 -16.4921 -197.79 185.554 -1.07208 64.3763 47.8279 3.73949 -351.892 359.968
27499 2 -15.3377 -49.3725 -15.4709 80.0935 -105.341 27.066 -23.6606 -39.2793 37.451 -91.1393 194.629
2769 2 -17.9022 -49.1033 -15.2218 17.6736 -99.904 62.2368 21.5107 24.571 13.9422 -94.8191 157.583
3068 2 -14.0156 -48.6783 -20.6141 101.795 -140.319 71.8081 35.4819 -4.81603 32.182 -93.8671 243.335