ITEM: TIMESTEP
780000
ITEM: NUMBER OF ATOMS
29952
ITEM: BOX BOUNDS pp pp pp
-2.5112174984375557e+01 3.5097469333487673e+01
-8.5522995066074344e+01 9.5508289408074347e+01
-2.0951778812106220e+01 3.4819631958248870e+01
ITEM: ATOMS id type x y z v_StrAtomXX v_StrAtomYY v_StrAtomZZ v_StrAtomXY v_StrAtomXZ v_StrAtomYZ c_PEAtom v_VMS
4918 2 34.1318 -80.3019 -18.8698 -465.908 402.458 -248.225 24.3571 11.5853 55.4382 -94.6754 789.822
27457 1 33.6191 -79.7544 -17.4374 1003.24 -707.363 267.773 -93.5838 -110.179 -41.4252 -333.837 1508.91
22194 2 32.9566 -79.9151 -16.0068 -466.801 336.875 -84.766 103.924 24.7772 9.04431 -93.4843 720.626
7369 1 -22.0595 -76.8418 -20.1437 488.927 -398.169 313.046 -73.1479 371.841 113.489 -317.795 1063.64
2204 2 -23.6377 -76.64 -20.0871 -155.804 220.965 -186.218 67.4518 -113.292 -72.7092 -105.356 471.544
7368 2 -21.5676 -76.714 -18.6689 -317.027 171.994 -10.8804 1.99096 -163.081 -39.3206 -108.484 517.293
11841 2 -23.3375 -75.5712 -15.1462 -374.684 200.179 140.959 25.9289 -41.1006 -45.8808 -115.344 559.76
20046 2 -20.9656 -75.5191 -16.3476 -360.517 141.494 181.309 -6.00101 -129.539 -43.0608 -103.85 574.107
29569 1 -21.11 -75.3558 -17.9059 705.941 -265.547 -246.255 9.82301 308.548 58.1948 -318.457 1105.2
5006 1 -24.93 -74.9613 -14.9586 663.559 -504.021 -238.674 14.6806 -80.7517 30.765 -313.761 1070.93
2400 2 -19.8009 -74.9124 -18.7778 -324.599 147.874 30.2941 50.9517 -145.607 -31.2481 -103.482 505.791
2130 2 -22.3099 -74.3339 -18.2228 -316.95 194.916 72.8847 -15.4326 -138.88 -34.3213 -109.672 525.877
7011 1 -19.4494 -75.0519 -20.3173 656.439 -334.921 121.564 -111.553 370.871 195.254 -320.577 1141.48
4910 1 -21.7158 -75.6079 -14.923 769.488 -381.833 -290.307 -2.33223 200.24 108.101 -314.048 1176.39
4590 2 -21.0488 -75.7069 34.9221 -322.834 136.07 -97.8019 4.61452 -216.822 -105.139 -112.942 576.392
7273 1 -25.2545 -76.6615 -19.9755 409.63 -569.677 356.345 -130.254 105.588 205.799 -330.415 1058.82
27515 2 -24.694 -73.3774 -15.2686 -351.892 307.664 93.0028 -60.9055 -11.4651 -9.8125 -103.739 592.726
5312 2 -24.4943 -73.5779 -19.6778 -180.528 224.787 -55.5706 -51.4747 -13.9286 -123.622 -102.082 428.516
5071 2 -21.3095 -77.9603 34.647 -368.854 335.584 -220.106 7.06552 -187.238 -17.8412 -96.7759 721.01
14885 2 -18.9356 -76.4683 34.8817 -322.173 200.977 -154.089 -44.555 -172.747 -98.5028 -101.274 581.887
29484 2 -18.7651 -73.8567 34.7024 -298.555 220.836 -48.6471 121.814 -171.046 -114.459 -100.663 611.563
7501 1 28.2983 -74.0796 -18.4374 451.249 -268.366 280.745 68.0834 -223.689 126.938 -363.718 797.857
29753 2 27.8974 -73.6848 -19.9951 -193.892 94.3371 -97.8943 -28.4497 186.017 -82.1324 -85.1301 437.144
2675 2 29.313 -75.3018 -18.6948 -172.307 213.176 -214.115 -112.845 100.508 -63.8331 -81.8457 497.184
2573 2 29.8544 -79.2282 -18.8789 -126.733 297.984 -279.792 61.1172 111.419 -2.02742 -63.5026 563.275
27280 1 33.488 -79.3848 -19.9744 879.707 -672.893 442.431 -108.148 -101.154 -124.434 -347.936 1426.57
2338 2 32.0572 -79.3159 -20.6382 -385.182 304.624 -199.54 39.3888 185.367 67.8087 -79.5125 709.767
29603 2 34.7063 -78.8638 -16.5103 -422.551 316.977 -0.460048 46.6045 80.1022 39.8716 -105.14 665.919
22206 2 32.5838 -78.8931 -18.5169 -435.642 289.671 -221.553 28.2899 82.3166 3.01054 -98.9929 662.863
2128 1 33.5524 -78.5591 -15.316 858.042 -545.119 -30.5086 -130.781 -158.173 -96.6935 -328.613 1290.74
29776 1 31.092 -78.6431 -19.4419 521.88 -619.765 532.578 23.3258 -331.212 -37.9841 -375.335 1284.81
4620 2 34.4071 -78.1844 -20.4063 -320.618 323.289 -204.802 82.2389 -20.4263 -11.4281 -95.0693 612.69
2035 2 32.9191 -77.3185 -16.0576 -369.521 241.506 -0.397506 -13.6837 72.3696 16.1305 -102.547 548.741
1940 2 31.0235 -77.0437 -19.7509 -245.175 310.003 -243.567 -121.482 175.55 -36.7798 -82.54 669.416
27443 2 34.3002 -76.4479 -18.4844 -270.079 277.274 -97.5534 39.755 2.11095 -57.6119 -107.558 499.64
2116 1 33.344 -76.1646 -17.2214 623.614 -553.945 32.9941 92.4799 -156.395 55.6111 -326.031 1071.59
29312 2 31.9629 -75.6541 -17.8428 -222.723 287.068 -151.035 -177.313 81.7322 -63.5674 -95.8862 595.787
4695 1 30.8817 -75.5864 -19.0832 358.345 -571.117 438.448 358.943 -213.638 152.223 -357.955 1240.05
2417 2 34.3135 -75.3729 -16.1767 -296.273 226.32 87.0985 -3.3342 78.9767 -15.5727 -105.895 489.084
2117 2 31.3897 -74.2964 -19.9213 -170.199 218.544 -136.893 -167.16 70.9273 -131.805 -91.6837 538.814
2358 2 34.3781 -75.4305 -20.8564 -195.627 241.291 -124.79 -34.6311 19.7473 -178.254 -94.6886 514.837
29661 2 29.1754 -73.4945 -17.1256 -283.715 137.228 -56.6212 -87.0069 84.9968 -18.2945 -89.7715 422.563
27565 1 34.6799 -73.8336 -20.9704 316.145 -345.429 98.4717 162.384 -55.2649 401.582 -344.144 955.577
29751 1 -23.2025 -73.1576 -18.8169 540.64 -517.042 -32.9278 62.2324 162.072 142.878 -326.719 996.334
1941 2 -23.6228 -72.3762 -17.4149 -331.456 279.305 87.8353 -36.2379 -62.2196 -32.2742 -99.9092 558.056
4503 1 -23.8216 -72.1152 -15.8457 719.373 -629.697 -171.837 115.732 87.6465 6.13686 -335.716 1214.61
2285 2 -22.3186 -72.2545 -19.8349 -268.332 299.759 -25.97 -4.82974 -121.702 -100.029 -100.454 564.185
2429 2 -24.5651 -70.7892 -15.4243 -292.697 286.019 53.2523 -92.6373 -50.7842 18.3397 -96.5995 537.474
1994 1 -22.0347 -70.8879 -20.6904 440.695 -487.747 49.0847 -33.8066 212.142 158.525 -342.289 930.38
4716 2 -20.8182 -70.1446 -19.8519 -224.939 224.916 0.965952 79.6662 -76.0492 -4.73822 -94.735 433.862
9817 1 -19.5428 -69.3474 -19.1085 318.214 -255.815 -47.5776 -225.03 95.9208 -39.4831 -348.456 661.462
7015 2 -19.7756 -69.2112 -17.5276 -164.713 61.735 74.6294 107.445 -47.6573 -12.2584 -92.8555 310.262
4428 2 -23.4357 -70.0574 -20.9328 -176.656 163.885 -14.3192 11.7191 -38.6064 -71.4321 -93.9644 327.461
4931 2 -19.7428 -67.9027 -19.6747 -135.174 96.4233 15.4489 68.3682 -52.0546 -15.0847 -94.3158 253.525
4928 2 -19.969 -67.5183 -15.2209 -126.363 13.4699 99.5588 18.7477 -44.7587 -23.8337 -94.8733 218.566
7419 1 -19.0477 -68.5852 -16.1383 295.987 -1.93094 -236.216 -150.01 106.968 54.6008 -346.528 569.405
12300 2 -17.9889 -69.8828 -19.4316 -139.409 97.3304 19.4569 158.791 -80.2961 46.2624 -90.7984 380.895
12188 2 -18.334 -69.7876 -15.3669 -210.453 38.0971 111.569 134.472 -43.2788 -27.5118 -92.4141 384.154
4627 2 -15.0569 -69.689 -18.9753 -204.204 14.5094 41.4928 128.705 -137.473 12.4506 -90.042 401.649
14597 2 -15.7656 -69.5699 -15.2541 -232.034 -58.696 120.973 162.273 -77.0906 -33.5171 -89.3396 440.077
9814 2 -13.6203 -69.3165 -16.9747 -237.056 -49.9587 90.2718 114.219 -75.9057 13.7631 -81.6439 371.346
7480 1 -13.5627 -69.22 -18.6151 479.003 31.7476 -125.291 -217.679 242.655 -33.2824 -360.855 785.529
12208 1 -16.4998 -69.1915 -19.6527 258.375 -35.3623 -77.3918 -294.455 247.68 -44 -349.264 741.856
29584 1 -14.4923 -68.5904 -15.875 394.294 154.795 -296.334 -360.447 119.476 48.2107 -360.435 899.158
7089 2 -16.7717 -67.8008 -18.8422 -118.969 13.2686 38.2378 110.206 -110.167 -30.8963 -95.3461 311.645
12258 2 -17.9428 -67.6402 -16.6928 -135.211 -26.2412 103.649 82.2623 -76.453 -43.065 -94.2177 293.769
14770 2 -13.2915 -67.5839 -18.7628 -211.874 -16.415 91.8061 171.287 -85.1038 25.8396 -91.2034 427.572
1942 2 -15.4211 -67.473 -16.5887 -165.82 -42.0995 127.647 167.774 -72.2312 -30.2842 -91.8104 409.841
4810 2 -12.5208 -69.677 -19.7486 -236.29 12.057 26.3699 51.0652 -142.366 8.44773 -82.9736 366.438
4722 2 -5.63637 -67.7314 -18.8088 20.539 -46.3737 -124.616 68.9371 13.7625 10.0213 -34.0958 175.957
17194 2 4.61272 -70.3611 -15.348 -186.813 102.888 -151.566 14.7409 -6.03439 4.78861 -25.4293 275.296
7338 2 1.72574 -67.559 -20.1786 -135.004 -97.5896 -108.247 -37.9133 -95.7733 147.129 -69.774 312.866
19929 2 9.95375 -69.9234 -19.5802 -124.666 -38.4907 -63.8482 -55.7999 62.9943 96.1118 -66.9682 234.184
12435 1 5.62859 -69.3406 -14.8061 404.723 57.4202 189.014 85.3659 87.5555 -6.64219 -454.576 370.44
25176 2 6.83793 -68.9117 -15.8399 -200.339 -92.559 -44.8376 -76.9938 -32.1558 20.4157 -51.1951 202.913
17497 1 10.2612 -68.6176 -18.6141 118.263 199.822 134.272 150.345 -120.91 -169.245 -392.01 450.78
15238 2 9.25112 -68.4535 -17.3347 -81.5699 -138.464 -38.5185 -92.664 1.28207 58.6672 -65.2905 208.878
22455 1 7.85411 -67.9426 -16.6642 244.886 326.63 -15.7203 218.569 48.7455 -94.5631 -407.489 522.66
10160 2 6.19824 -67.6949 -20.6971 12.6715 -124.355 -45.2159 -68.5308 49.678 154.426 -74.697 327.461
20193 2 10.0812 -67.4546 -19.7563 -27.084 -100.318 -51.9324 -79.7781 70.6636 107.543 -78.4554 270.057
9912 2 7.20534 -67.4094 -18.0886 -54.2603 -166.427 -7.89858 -119.051 14.7929 81.8344 -69.9856 288.44
24884 2 14.226 -68.7772 -19.2499 -135.091 -96.8508 67.2661 -49.0482 85.4375 141.119 -79.179 351.471
19986 2 11.8423 -68.5301 -18.0978 -37.5128 -110.215 -54.3581 -58.6643 113.032 83.307 -73.8807 271.695
22297 1 13.3665 -67.9581 -18.2565 153.724 228.734 -12.6411 126.187 -277.449 -212.444 -373.229 678.147
17572 1 15.6074 -67.8947 -16.0715 390.596 167.202 14.6235 16.7922 -134.647 -198.076 -357.219 529.346
17310 2 14.3213 -67.832 -16.9288 -131.41 -108.832 -10.9756 -35.3794 133.249 97.5291 -85.1835 312.813
25148 2 17.0798 -67.7828 -16.5788 -143.547 -122.579 -17.1316 13.2025 5.96125 105.68 -87.6634 218.87
22184 2 18.8726 -69.134 -19.6569 -89.0536 -84.2704 17.1639 10.5466 -0.388023 138.6 -71.8338 262.224
24682 2 19.578 -68.8007 -17.0503 -85.7551 -52.4971 -54.4248 -46.884 -50.1011 75.7312 -68.6565 179.933
24830 1 22.5314 -68.8907 -20.3546 26.7642 52.5352 195.334 89.7404 -115.301 -170.652 -383.155 419.696
29862 2 21.4686 -68.7486 -19.114 -7.30513 -82.4906 -88.9297 -35.739 -15.3115 94.2649 -70.9379 193.316
27555 1 19.941 -68.5639 -18.6123 95.6485 194.471 71.3479 63.4288 114.94 -231.039 -390.855 473.918
22479 1 18.6893 -67.4171 -16.8261 152.719 247.702 26.0084 -39.2928 79.9778 -231.544 -370.115 470.926
4520 2 26.9817 -73.1079 -18.006 -203.805 73.3029 -87.2799 12.3311 116.271 -56.7641 -80.8446 329.783
29849 2 26.0836 -71.7087 -20.4946 -139.704 24.2111 -64.6983 -50.6126 195.724 -32.1041 -85.1619 381.969
4719 1 27.333 -71.5797 -17.8772 467.74 -190.086 47.2321 152.619 -267.205 -0.754927 -361.068 785.503
22459 2 27.9721 -71.4442 -16.346 -309.169 110.755 69.3694 -70.4996 86.9553 53.0812 -86.2257 454.661
24953 2 26.3467 -70.2864 -18.0528 -176.078 100.803 -18.4479 -120.66 157.201 43.0298 -80.9496 425.715
25145 2 23.623 -70.032 -20.3849 -38.1594 19.1822 -117.967 -81.0046 95.944 63.7181 -75.7327 271.504
29822 1 26.4251 -68.6766 -17.781 332.711 -141.117 -83.5204 300.557 -295.031 -168.384 -366.067 904.285
27486 2 26.1234 -68.3415 -16.2509 -190.784 6.61952 117.602 -147.944 88.5593 74.0278 -80.6084 422.876
22458 2 27.9663 -68.3049 -18.0784 -199.891 103.112 65.2076 -133.888 117.925 71.8939 -92.8109 439.051
5118 2 28.7629 -71.2382 -18.6051 -268.437 101.04 -1.56935 -80.4725 117.715 -8.37594 -96.9855 412.721
2322 2 25.477 -67.7873 -18.5939 -122.978 20.1725 20.058 -129.67 158.449 75.505 -84.6898 404.153
27449 2 23.5325 -67.6316 -20.3389 -54.6477 7.23926 -42.7547 -52.0425 79.2191 65.7531 -82.7064 207.745
4897 1 26.3493 -67.2673 -15.1118 309.377 129.751 -355.976 325.301 -77.5088 -63.1761 -360.695 838.394
27333 2 33.4086 -72.9887 -20.7576 -128.92 138.731 -35.2203 -113.81 34.3945 -171.947 -93.4569 431.79
7129 1 31.8254 -72.8151 -20.322 270.051 -244.582 80.1647 284.74 -77.8654 274.06 -347.311 830.619
2185 1 29.3746 -72.3119 -16.0381 676.667 -230.831 -179.268 150.552 -199.32 -95.3907 -354.045 996.945
4927 2 31.3403 -71.7925 -19.0579 -166.462 132.64 -31.306 -114.318 28.437 -42.055 -96.0517 337.996
5002 2 30.4984 -71.3634 -16.7007 -274.494 143.389 91.0213 -80.5624 101.41 51.0725 -94.3679 462.204
25154 1 30.3696 -70.8143 -18.2601 478.696 -278.693 -68.5107 144.383 -138 -40.2739 -340.887 763.65
19713 2 30.4168 -69.185 -18.2717 -238.663 147.986 70.8913 -51.1057 77.4592 54.3209 -95.6408 400.4
4920 2 34.9102 -68.4939 -19.8904 -129.488 86.8135 9.59041 -15.9752 -24.5685 -1.34913 -91.0694 196.541
2340 2 33.5598 -67.8167 -17.3779 -134.791 76.3633 105.17 -40.2236 -16.6225 11.9308 -95.5468 240.017
2414 1 29.5331 -67.8243 -18.3188 391.61 -213.821 -190.77 156.872 -156.843 -108.947 -344.048 732.363
29750 1 33.1987 -67.691 -15.8206 290.322 -153.72 -235.404 125.868 31.6275 3.26953 -333.62 539.146
29790 2 33.9742 -68.8244 -15.1044 -185.613 130.483 55.1778 -79.4576 -46.3842 -11.2006 -100.415 327.957
2420 2 31.7092 -67.5725 -15.1772 -160.659 62.5653 120.865 -68.1369 27.3531 -5.17162 -103.297 287.219
5104 1 34.583 -67.5156 -18.6194 254.478 -169.469 -143.029 46.5597 76.5087 -26.2544 -348.212 441.987
24984 2 29.5259 -67.448 -19.9183 -176.031 82.7214 103.866 -69.3953 70.4434 23.4012 -92.7057 322.254
27380 2 -22.8 -67.6319 -15.7297 -145.399 71.2267 77.6708 22.5009 -70.5784 -32.5323 -97.4158 260.772
2531 2 -24.2021 -67.1693 -17.8693 -144.591 83.0455 76.3622 3.34475 -78.8821 -14.1121 -96.2608 263.893
10085 2 -21.6221 -66.9232 -18.3192 -170.567 84.0137 64.9163 29.8698 -90.4818 -28.5762 -96.1211 300.003
4814 1 -22.7343 -66.8266 -17.1261 306.382 -131.045 -185.965 -33.6753 171.971 82.9789 -341.116 575.467
2318 1 -20.8214 -66.7169 -19.7414 320.529 -241.701 -70.7017 -89.5622 135.985 82.6597 -344.208 590.965
4860 2 -20.0856 -65.2795 -19.9047 -115.876 109.708 15.9942 64.4577 -69.557 -55.364 -95.375 273.321
4907 2 -22.7526 -65.2219 -16.9143 -140.609 68.1887 83.297 35.1528 -80.54 -59.9834 -96.7111 284.501
10103 2 -23.0766 -63.8548 -19.2624 -115.253 46.0987 41.321 45.7875 -99.5109 -58.4944 -97.1345 267.484
29798 1 -22.6346 -63.8462 -17.7048 235.209 -139.195 -126.611 -123.497 179.298 102.087 -341.291 555.957
2666 1 -24.1121 -63.2216 -20.3615 185.319 -42.6854 -109.197 -58.5685 161.407 128.849 -349.027 458.07
27287 2 -21.2602 -62.9791 -17.554 -113.224 31.9103 90.9991 102.511 -69.124 -24.5915 -96.3693 284.263
2168 2 -23.7957 -62.8832 -17.1277 -69.3356 32.311 65.7672 39.5567 -93.6328 -29.3386 -96.0988 220.068
7674 2 -20.0413 -62.6145 -20.5726 -92.6632 32.8679 40.0312 74.519 -60.8449 -16.3437 -98.5554 212.78
9808 1 -19.2647 -64.0329 -20.5357 135.104 -120.304 -28.326 -130.713 114.912 57.9038 -343.115 388.757
4917 2 -24.9222 -64.0272 -15.1435 -100.242 72.8935 109.178 -12.056 -75.4532 -48.9452 -97.5895 249.554
5106 2 -24.4362 -61.7507 -19.8706 -82.2154 23.9726 46.4434 13.3407 -72.9703 -93.8354 -93.0744 238.935
5283 1 -25.1089 -62.852 -16.2428 161.726 -104.546 -159.601 -13.4573 171.322 42.1176 -340.923 427.211
5178 2 -21.7659 -66.8313 -20.9957 -214.489 121.526 53.1549 58.8191 -76.6655 -30.0378 -94.4315 354.013
2510 1 -20.4326 -61.5613 -17.4751 137.057 98.1075 -204.644 -216.466 113.691 45.1509 -340.689 538.917
7190 1 -16.69 -67.0106 -17.4567 271.37 -46.3719 -148.03 -226.981 171.119 112.255 -348.58 651.003
7380 2 -15.8342 -65.4411 -20.2698 -115.061 101.791 -1.64314 64.2029 -120.137 -27.1398 -94.6824 305.234
4913 2 -16.6973 -65.4501 -17.8951 -127.941 121.713 35.6242 92.5265 -72.7789 -57.3562 -90.346 315.736
9722 1 -16.4982 -64.5051 -19.1555 209.715 -227.644 2.75028 -152.082 151.616 55.9382 -348.713 539.756
12032 2 -17.8921 -63.9861 -19.765 -55.6244 72.472 -12.7694 67.444 -64.6408 -24.3388 -94.7234 201.778
5035 2 -13.4866 -63.6329 -15.0304 -116.61 9.24438 104.672 123.336 -5.35805 -10.976 -86.4372 288.164
12430 2 -15.3692 -63.3938 -19.0305 -142.408 105.44 19.9579 93.3291 -68.1628 18.4786 -93.6076 297.73
27289 1 -15.1714 -61.8123 -18.8647 189.882 -141.681 -113.019 -213.847 74.3813 -49.2327 -340.681 512.165
2622 2 -18.8617 -61.7766 -17.0538 -53.4798 -53.117 90.7995 134.555 -59.1077 -21.7497 -95.6325 294.924
12320 2 -10.8191 -66.8661 -18.2067 -171.697 -62.2168 66.6974 171.957 -8.13528 72.3727 -76.4213 383.846
17466 2 -7.96472 -66.5179 -17.9814 -16.7451 -169.304 -31.841 128.071 -49.4522 30.4204 -55.083 283.757
17039 2 -9.57762 -66.6514 -15.9193 -155.456 -129.283 74.125 116.181 31.9705 2.68325 -66.1123 301.605
12400 1 -12.3872 -66.354 -18.3515 385.747 21.6667 -202.785 -415.18 25.5304 -91.4427 -360.199 899.341
4635 1 -9.43723 -66.2846 -17.5459 205.223 264.419 -59.8354 -280.989 41.9965 -88.492 -399.221 595.901
12321 2 -12.8349 -65.5559 -16.9891 -166.603 -6.47161 107.066 206.438 6.69068 28.8811 -86.7396 432.667
29496 2 -12.302 -65.1218 -19.4176 -174 20.3485 90.9114 163.268 -21.0614 31.0458 -89.7968 375.042
2132 2 -9.66065 -64.6865 -17.637 -101.895 -133.123 56.3864 160.656 -20.0858 29.9089 -76.85 335.105
5114 1 -12.3988 -64.3998 -15.9006 316.882 24.3628 -222.269 -318.678 -17.2935 -30.8679 -362.273 725.922
4727 2 -11.6698 -63.3383 -16.8957 -170.735 -6.09466 103.759 141.887 27.34 6.65859 -87.6486 346.456
87 1 -10.1675 -63.1883 -17.3577 258.428 117.925 -181.253 -305.317 -24.4854 -44.9026 -368.301 662.41
7217 2 -11.6343 -62.9759 -20.6853 -107.471 11.4788 78.0411 108.219 -34.3676 62.9768 -90.6651 277.62
4809 2 -9.3348 -62.6593 -16.06 -62.813 -100.149 67.9978 166.215 39.631 9.40278 -81.2353 333.54
18 2 -10.0015 -62.3951 -18.7003 -79.5122 -60.5515 88.302 120.697 -12.1055 43.5678 -84.075 274.183
7609 1 -10.2319 -62.1438 -20.3335 102.085 99.2162 -142.411 -210.278 96.3263 -141.611 -362.711 528.898
7204 1 -12.2734 -64.3758 -20.7809 295.121 -99.2633 -157.94 -262.202 104.815 -97.9603 -350.641 670.91
15005 2 -11.3531 -65.1691 -14.9615 -178.925 -83.9197 106.178 181.569 44.8067 -20.0568 -83.3545 411.527
4926 2 -6.95191 -66.024 -20.2718 33.2451 -202.418 -39.4063 172.79 -37.482 77.8859 -59.8 394.559
17376 2 -1.8816 -66.8931 -16.257 -72.8983 -217.729 -120.211 28.4295 -51.2296 -15.2624 -52.4194 165.405
14716 1 -6.50324 -66.4724 -18.696 -79.9184 369.15 120.917 -279.883 57.5675 -41.8608 -438.068 634.043
7422 2 -5.51999 -65.2146 -18.1393 95.519 -289.335 -46.9878 120.806 -6.50999 25.5456 -55.4971 399.304
7581 2 -3.72668 -64.3389 -19.684 78.6962 -294.787 -14.5346 15.4509 52.6743 47.3139 -68.7095 359.329
12472 1 -4.3648 -64.0656 -18.1775 -151.011 585.675 11.8095 -63.7645 -40.2058 -105.89 -403.337 707.074
12234 2 -3.05322 -63.6464 -17.2241 57.6698 -266.821 -23.694 -58.806 5.85858 51.2 -69.4375 322.264
9794 1 -1.5055 -63.2561 -16.8895 -82.2787 403.202 7.99154 206.241 25.7454 -91.4328 -387.527 595.559
7208 2 -1.34428 -62.7551 -15.4262 19.127 -194.93 48.7746 -95.0873 -19.1404 50.9848 -72.6853 298.442
4836 2 -5.14061 -62.6271 -17.7887 74.9802 -254.99 23.7229 34.8285 -21.5476 92.9515 -71.3792 354.325
2528 2 -5.05279 -61.932 -15.0053 69.3058 -279.426 82.3231 40.7593 -43.7673 13.7235 -74.4706 370.97
5367 1 -5.04555 -61.52 -16.6365 -150.309 503.627 -100.069 -26.8226 77.8732 -129.771 -382.904 684.233
9973 1 -1.80239 -66.8192 -14.6673 190.441 449.073 97.4802 -118.202 182.057 67.7931 -432.204 504.69
1962 2 -2.76272 -61.424 34.8718 75.0574 -202.261 -7.92302 -24.4525 11.667 67.7633 -80.7537 277.05
5156 2 -0.894236 -62.0247 -17.8602 72.07 -229.689 12.9375 -79.7021 -13.1359 52.3449 -77.6253 323.274
17780 2 0.347878 -66.7802 -17.8775 -118.089 -200.018 -39.062 -17.0124 -101.362 75.8063 -66.4998 261.464
19893 2 2.37936 -66.6691 -15.7295 -26.9595 -291.514 32.6696 -11.5179 -33.585 23.5434 -63.5599 307.839
22288 1 1.5282 -66.5343 -18.9448 188.737 364.311 41.8547 77.6807 166.078 -247.562 -388.717 602.411
14914 2 2.96077 -66.1993 -18.2576 -7.12704 -221.274 -13.1599 -25.551 -42.465 118.744 -74.6367 307.038
20551 2 -0.0385001 -66.2469 -15.2077 -147.538 -282.953 -16.4299 14.2555 -67.1063 7.24554 -65.4604 259.918
20354 1 -0.583202 -66.1448 -16.8115 182.641 486.477 108.718 72.9369 125.197 -9.30923 -401.954 428.35
9916 1 3.25801 -65.7091 -16.7219 -72.1244 542.45 -47.2147 36.4417 45.5737 -105.273 -389.96 637.554
19508 2 1.0723 -65.1475 -19.694 -29.8271 -167.299 -13.8347 -94.4123 -32.6687 64.4708 -77.7103 252.517
9909 2 -0.670654 -64.5716 -17.1107 -0.0772246 -208.396 -32.623 -103.341 -32.1982 7.43913 -72.9494 270.167
14886 2 2.45947 -64.291 -16.8142 29.0589 -209.525 22.1487 -8.9623 -33.0457 56.3501 -77.6394 261.466
15074 1 1.07843 -63.6544 -20.3661 -132.303 345.688 -21.1771 203.728 -25.0907 -66.8056 -375.212 572.277
10271 2 4.12309 -63.5103 -18.505 48.0834 -178.201 -11.8495 -34.769 1.36531 73.686 -82.9871 247.297
12772 1 2.74804 -63.002 -17.7589 -101.731 320.846 10.3838 86.0492 26.4973 -159.021 -373.295 493.91
14777 2 1.74071 -62.8159 -19.0309 52.7769 -164.538 7.20745 -70.1866 -4.5965 59.8982 -80.7288 254.96
17493 2 2.86461 -61.8552 -16.7474 39.9434 -168.269 20.0016 -61.1822 -14.7495 84.5125 -79.6939 270.014
15358 2 -0.293024 -62.9115 -20.8091 104.445 -232.994 -11.3723 -96.649 8.45338 32.2547 -78.9196 345.769
17386 2 4.73629 -65.213 -16.1467 35.7996 -253.881 48.1988 -62.737 4.58313 39.0657 -73.1297 322.66
22483 2 8.2247 -66.9426 -15.3592 -73.7361 -203.074 49.6321 -83.0545 0.00438276 56.4777 -66.1435 279.585
20164 1 6.8152 -66.7078 -19.499 -20.8651 302.054 45.6854 201.338 -75.8246 -275.26 -382.603 673.334
10173 2 8.18197 -65.9662 -20.0271 13.3266 -121.815 -18.5339 -86.155 29.4968 114.735 -80.0723 281.679
17378 1 9.7422 -65.9165 -20.3643 5.44889 196.763 15.7774 120.002 -108.343 -184.359 -373.225 463.803
7686 2 5.74393 -65.6149 -19.1582 42.2753 -162.782 -26.282 -87.9354 13.1545 129.365 -78.8771 326.517
15062 1 5.97239 -64.3219 -15.5144 22.7273 399.322 -138.727 154.232 -14.622 -76.7814 -385.394 564.255
12650 1 5.26098 -64.1593 -19.4006 -92.6078 302.185 33.4722 105.78 -18.6905 -184.157 -369.797 508.271
14981 2 6.97068 -63.8911 -16.6974 -2.36271 -188.676 35.2995 -77.1279 9.1287 62.1293 -78.7569 269.86
14891 2 6.61414 -63.2779 -19.1965 26.995 -137.735 -23.6516 -51.8067 7.98389 64.487 -83.7985 205.127
10181 2 9.03146 -62.9827 -18.3272 70.3143 -153.132 -23.2139 -58.7152 28.817 76.5573 -82.4008 261.14
5257 1 7.51571 -62.9384 -17.9028 -100.352 334.582 2.17383 93.2622 -9.48851 -133.751 -370.016 484.891
22634 1 10.0015 -62.064 -19.29 -122.271 289.096 18.5182 134.608 -93.4078 -95.2861 -368.017 488.774
10256 2 8.91607 -61.6108 -20.3353 37.9218 -124.284 -9.41704 -65.7863 25.5933 21.9488 -83.0185 193.047
10159 2 7.15007 -61.381 -17.643 40.2675 -192.401 35.5876 -51.6471 2.79183 58.054 -82.5611 266.841
17568 2 11.0018 -65.078 -19.6462 -30.5748 -82.8998 -22.6411 -61.7129 80.6422 83.5583 -82.1813 234.727
12765 2 13.1599 -66.428 -18.8164 -47.253 -88.9111 11.8988 -87.4385 130.799 78.3321 -82.352 316.809
22478 1 12.4595 -65.0075 -19.0206 88.7021 142.977 -32.3687 163.218 -221.122 -145.918 -369.817 560.942
20059 2 12.2886 -64.4923 -17.475 -29.2458 -97.3341 37.2703 -95.2037 134.436 87.6931 -83.1315 343.613
8070 2 13.2671 -63.8927 -19.8893 -51.3971 -96.6378 82.3361 -60.8984 50.4598 32.7713 -81.1593 219.015
19971 1 12.8373 -63.6513 -16.2339 48.0381 237.037 -129.762 232.414 -224.677 -124.7 -363.735 679.025
27785 2 14.356 -63.3458 -16.5788 -26.525 -98.1894 52.4221 -116.302 100.792 51.4865 -88.4376 309.894
12382 2 16.5835 -63.3944 -15.1313 -27.889 -101.46 24.0753 -74.8487 21.8857 47.6023 -93.3491 192.296
27585 2 16.6456 -63.0214 -17.8596 -3.51233 -159.583 109.293 -75.5881 -9.67606 10.5726 -83.568 269.157
25165 1 15.8408 -62.7161 -16.4627 36.1339 202.726 -109.393 206.834 -78.0203 -93.0798 -358.651 495.751
20092 1 12.8431 -62.636 -20.7492 122.97 215.946 -179.061 66.7443 15.7313 -54.5974 -372.08 388.584
7530 2 11.287 -62.3902 -20.2478 -7.8565 -130.638 27.1228 -45.748 25.1041 32.7351 -82.8475 178.823
27552 2 11.9528 -62.2879 -16.0828 -4.59251 -150.835 66.1845 -98.6411 85.5304 65.7345 -84.6751 317.563
20351 2 12.9115 -64.4789 -14.8563 -12.3522 -142.363 74.3421 -112.268 52.619 59.1675 -85.2683 303.827
24869 2 19.3251 -67.0639 -18.2843 -64.6509 -119.147 17.4124 11.6577 -47.9298 108.39 -80.1408 238.161
24970 2 19.1681 -66.3748 -15.7382 -22.1079 -170.875 37.4491 53.6906 17.3309 104.804 -84.9535 277.56
27460 1 19.9817 -65.2227 -14.9529 -106.796 479.456 -184.328 -112.497 -122.862 -129.177 -361.547 726.958
4915 2 17.3561 -64.7438 -19.8175 -47.3191 -131.787 127.836 11.1173 -0.299904 8.56111 -80.6621 230.651
20181 2 20.7438 -64.3715 -16.1109 47.0708 -226.374 99.1227 58.6964 16.961 50.861 -87.5514 332.677
9801 2 21.8634 -63.7718 -18.2871 22.0935 -192.846 114.099 9.05404 -4.15447 66.9606 -87.7454 296.965
19 2 19.1771 -63.5542 -18.1656 8.87208 -206.02 122.342 20.9743 -6.75428 2.70652 -85.0914 291.404
27758 1 20.5975 -63.4558 -17.4303 -93.0988 412.73 -214.791 -93.0513 -1.40815 -63.9715 -361.105 608.675
2582 1 17.7355 -63.4292 -18.9591 60.0029 379.038 -282.86 44.9707 40.1001 34.8065 -370.478 585.875
2503 2 18.0715 -62.2782 -20.0623 -44.4994 -172.976 134.98 -39.7618 -1.92675 -51.1711 -79.907 290.495
2496 2 20.8253 -61.8904 -17.0544 25.9291 -166.426 92.4375 39.3629 9.1823 12.6742 -86.0139 244.132
27582 2 22.7373 -61.6141 -15.4015 -38.099 -147.064 125.475 -9.14831 -10.1519 -35.0086 -93.913 246.355
2393 2 23.0565 -63.5286 -20.6496 -49.3469 -150.188 153.087 -45.3549 72.4481 47.782 -91.1182 316.747
29773 1 23.2802 -63.9416 -19.1219 64.8127 267.609 -211.943 97.5241 -71.0364 -164.784 -352.466 546.789
13 1 24.6371 -66.7057 -19.5348 193.773 5.30048 -37.0322 177.992 -225.038 -120.122 -359.627 579.267
4821 2 26.7358 -65.8794 -15.8895 -134.461 -54.8155 154.549 -156.633 61.6284 12.9371 -93.526 390.32
27283 2 25.9573 -65.856 -20.1114 -118.401 3.19153 86.6212 -96.4007 112.852 27.6 -92.7094 316.64
29873 2 23.7653 -65.4369 -19.05 -47.8908 -81.1236 53.1444 -71.9936 63.2038 68.6575 -88.7878 237.371
25172 2 28.2717 -64.5367 -20.2413 -87.4513 -12.0484 91.2848 -76.6327 78.7042 -6.2622 -93.4123 245.913
29864 2 26.7343 -64.4247 -18.1012 -105.245 -54.986 121.914 -109.145 102.353 -2.3787 -95.8976 331.502
29786 1 27.1008 -64.4284 -16.5232 212.808 55.6369 -284.049 280.109 -144.232 -27.1435 -342.548 702.481
2403 1 26.7681 -64.4853 -19.7248 197.648 65.2504 -213.009 149.71 -182.927 -1.5651 -344.049 547.204
2515 2 28.7329 -64.4297 -16.4746 -93.6146 5.87133 108.925 -104.587 67.1754 -0.264666 -98.0388 277.711
25174 2 26.6469 -63.1947 -15.6421 -81.0981 -61.8089 150.573 -127.138 43.8838 5.84885 -97.1436 322.408
25041 2 26.4644 -63.0263 -20.4372 -102.498 -89.9851 108.107 -23.3806 64.6602 12.9771 -96.2351 237.832
27732 2 24.3274 -62.8678 -18.4756 -73.4849 -101.823 113.639 -62.0748 30.6974 77.385 -95.021 271.059
2679 1 26.7337 -61.807 -14.8032 99.5382 96.1503 -202.582 129.804 -82.7724 105.719 -338.426 441.469
22573 1 26.6023 -61.4121 -20.7426 205.745 46.2049 -182.38 8.83329 -93.9136 -2.95974 -347.19 375.356
12609 2 28.2959 -61.3073 -14.7376 -42.9203 12.264 73.2426 -33.0907 41.1084 -42.6112 -98.3802 154.695
2589 2 29.9775 -66.5738 -17.3901 -156.428 42.7696 83.1697 -61.0584 57.3133 28.1277 -98.1386 269.763
12187 2 33.9442 -66.3191 -15.2923 -135.414 60.7582 106.08 -49.7088 -58.8084 -41.3938 -102.921 268.993
4806 2 34.0238 -66.1842 -19.2628 -91.5396 57.0399 48.6773 -15.037 -16.8933 -0.124385 -92.4203 149.793
36 2 34.7796 -64.1491 -20.5766 -56.4894 9.66272 55.5305 35.7499 -52.6256 -45.3973 -88.4456 166.852
5015 2 30.237 -65.5807 -14.8196 -125.941 27.4183 139.849 -85.5316 37.5378 -13.3399 -103.429 283.037
220 1 30.1171 -65.2416 -16.4203 224.084 -48.1349 -218.068 128.214 -102.34 40.4608 -334.586 484.653
7504 1 33.4501 -64.8694 -20.0566 138.584 -11.0124 -104.924 -20.5531 -8.21763 18.8962 -355.752 218.606
14890 2 31.4737 -64.5068 -16.883 -117.588 43.7805 90.4418 -20.7105 16.852 -35.4142 -99.6814 204.079
2311 2 32.5466 -63.9325 -19.1864 -86.275 3.04582 55.7905 -11.2734 7.31705 -15.085 -92.8707 129.213
7207 2 33.8159 -63.2665 -17.1217 -110.138 30.0473 51.1781 -18.2135 -51.4495 -13.5982 -98.3089 180.421
7118 1 32.3238 -63.3963 -17.6789 212.222 -68.617 -130.795 40.7282 4.60487 38.7744 -340.383 331.284
431 2 29.9369 -62.5685 -20.2757 -94.8193 1.73744 54.0633 -12.3826 81.7597 -46.215 -91.2185 209.845
2314 2 31.6627 -61.9268 -17.4047 -127.912 49.1515 71.4949 -35.716 24.3322 -32.7073 -96.5274 211.233
2818 2 34.8669 -61.4996 -15.517 -86.2887 38.8108 66.05 23.6539 -65.0085 -1.97065 -97.0707 184.846
12578 1 -20.6734 -61.1337 -20.4576 127.548 -26.2473 -93.898 -138.793 93.0319 84.2208 -336.734 379.036
27586 2 -20.4687 -60.8649 -18.9166 -48.7558 -29.2811 63.7992 89.4708 -39.3222 -40.5131 -98.9031 210.793
5204 2 -20.9917 -60.6373 -16.23 -49.5664 -71.7748 115.771 53.5312 -72.5589 -32.3671 -94.773 242.972
2228 2 -22.2703 -60.7917 -20.58 -71.1798 9.19892 45.4695 9.27404 -39.7796 -62.4172 -97.4122 165.483
7597 1 -23.7816 -60.3188 -20.2496 151.068 -41.3979 -127.688 70.5911 75.9403 142.399 -345.997 392.657
27575 2 -23.7591 -59.0794 -19.2678 -66.5102 14.749 72.6506 -44.4415 -55.6131 -28.2751 -94.6329 179.618
7521 2 -19.4617 -57.5456 -18.8293 77.007 -78.21 24.3609 33.592 -21.6293 -13.3805 -96.9504 154.978
4802 1 -23.5554 -57.4104 -19.16 83.3161 57.0826 -151.957 98.3877 103.146 -4.24815 -344.004 332.989
113 2 -23.0232 -57.4488 -15.1334 -102.206 24.2999 91.1524 -9.34724 -40.0638 -46.3877 -93.1404 201.155
10219 2 -22.0263 -57.082 -19.5953 24.14 -40.1773 34.7578 -26.5338 -67.8777 -2.11368 -94.404 144.499
2569 1 -20.442 -56.8672 -19.8708 -128.257 98.4042 -35.8412 19.7074 76.5354 29.4228 -344.572 245.569
17412 2 -23.6374 -56.8344 -17.6786 -85.2562 -36.073 96.3817 -45.3506 -67.2975 -3.82656 -96.072 215.125
201 2 -24.6083 -56.8532 -20.2552 -62.1755 -44.4794 103.953 -38.3709 -23.0481 -9.49577 -96.3348 176.786
27469 1 -23.4314 -56.3018 -16.1785 170.87 8.00066 -149.107 6.02844 84.8934 26.0035 -342.529 317.105
7116 2 -25.174 -58.9382 -14.9902 -98.8514 51.0549 69.5919 23.6659 -32.5515 -58.6233 -96.3674 201.9
285 2 -24.9044 -55.7498 -15.7189 -64.3684 -9.44356 51.0723 -17.468 -17.1868 -28.9096 -100.146 119.631
10366 2 -19.9744 -55.3662 -20.0429 44.9824 -41.5924 31.8822 -44.7364 -16.6965 -10.8775 -93.2153 117.166
2623 2 -16.5839 -61.3504 -18.2208 -63.58 19.2233 57.626 120.199 -52.3087 8.46574 -98.1988 251.552
9900 2 -14.0396 -61.2509 -17.8792 -72.7437 19.8419 83.0294 105.263 16.1863 0.603278 -96.3277 229.004
17109 2 -14.9909 -60.8481 -20.2008 -114.143 37.2125 78.5358 72.6735 -19.6474 44.813 -102.053 232.159
12021 2 -16.8492 -60.8189 -15.6147 -52.5845 -92.3696 119.245 140.245 -25.6235 -31.3162 -94.4059 319.158
7228 1 -17.5979 -60.8234 -17.046 78.5909 108.584 -181.977 -302.327 102.359 58.7191 -340.073 626.571
7580 2 -17.8986 -59.3552 -17.4884 -15.0686 -56.8736 76.4504 158.147 -38.5567 -50.5182 -100.268 317.958
10246 2 -14.0963 -58.5565 -17.5814 -29.8525 -89.5455 80.3457 95.5445 40.1866 -1.10346 -107.733 233.495
7406 1 -18.0485 -57.8764 -18.114 -62.383 176.276 -124.86 -200.718 42.2855 37.2191 -332.524 454.043