ITEM: TIMESTEP
280000
ITEM: NUMBER OF ATOMS
29952
ITEM: BOX BOUNDS pp pp pp
-2.5112174984375557e+01 3.5097469333487673e+01
-6.9243203296816347e+01 7.9228497638816336e+01
-2.0951778812106220e+01 3.4819631958248870e+01
ITEM: ATOMS id type x y z v_StrAtomXX v_StrAtomYY v_StrAtomZZ v_StrAtomXY v_StrAtomXZ v_StrAtomYZ c_PEAtom v_VMS
2510 1 -20.5652 -66.0315 -17.3371 144.442 92.8973 -50.3266 -212.756 7.69296 -13.2711 -360.228 408.722
5204 2 -21.37 -65.3146 -16.1574 -56.7994 -47.6299 18.6587 59.3829 -20.2179 -5.60173 -87.9193 130.329
27586 2 -20.6662 -65.5474 -18.9457 -75.3909 -5.44286 -12.2862 87.501 16.8557 1.91121 -88.206 168.207
27287 2 -21.3894 -67.4868 -17.336 -108.916 21.1144 10.6267 114.561 -25.6816 25.7688 -86.78 242.894
27575 2 -23.5172 -63.1671 -19.7775 -67.9637 27.2639 -23.2582 -7.13625 -8.00087 12.02 -86.5477 87.1088
2168 2 -23.9998 -67.8104 -16.7272 -43.0797 18.8838 27.7424 57.2933 -45.9575 30.5226 -89.0036 153.119
29798 1 -22.721 -68.307 -17.658 188.471 -76.7685 -62.4292 -172.344 66.7902 -26.8444 -357.748 414.012
5106 2 -24.2692 -66.0325 -20.0706 -61.7277 64.6125 -52.595 35.7297 -15.9256 -22.9747 -85.4708 145.14
10103 2 -23.2536 -68.1404 -19.1743 -92.077 32.7827 -1.94082 69.0873 -40.5609 1.95681 -89.9043 178.119
2666 1 -24.2458 -67.7605 -20.3744 138.953 -74.8142 49.2672 -104.073 70.2318 19.9945 -359.085 288.198
7597 1 -23.5427 -64.6736 -20.6791 156.368 -99.9827 76.5185 -24.5757 -36.853 49.3843 -361.019 254.607
12578 1 -20.6522 -65.7581 -20.5329 152.286 -86.1506 110.495 -114.416 -17.644 -22.2473 -359.213 300.542
7674 2 -20.0212 -67.3554 -20.6811 -56.2794 45.6792 -62.6565 45.6647 -19.3997 55.6169 -85.6929 166.586
7116 2 -24.9444 -63.4397 -15.0083 -83.9114 66.0833 -39.1482 44.1618 -3.9662 -53.5535 -87.3455 179.694
9808 1 -19.3297 -68.8487 -20.7772 21.7143 -38.8336 153.244 -76.233 42.9816 -78.9096 -368.615 265.682
2228 2 -22.1111 -65.2936 -20.9112 -96.6879 54.9489 -57.0652 37.6957 19.9492 -18.9684 -88.9292 158.403
2622 2 -18.9938 -65.8794 -17.1578 -8.13222 -72.8679 -17.3469 106.497 1.90047 3.21577 -85.0346 194.283
2623 2 -16.6971 -65.7492 -18.3968 32.0337 -22.1365 -66.9531 55.8252 -16.5959 43.6607 -82.0091 152.529
7228 1 -17.654 -64.9337 -17.3653 -68.4236 126.252 68.5744 -190.04 2.51336 25.2826 -365.113 374.538
27289 1 -15.2903 -66.4352 -19 4.54811 -29.1444 140.989 -79.6519 37.3117 -140.066 -374.513 326.211
12430 2 -15.4878 -68.0546 -19.1702 -1.18468 14.2866 -85.0365 45.1887 -16.149 76.8456 -76.5533 182.187
12021 2 -16.9014 -64.9849 -15.9354 19.9434 -89.488 -13.4086 76.8493 -6.71565 -20.85 -84.7826 169.1
7580 2 -17.9469 -63.411 -17.9017 8.02951 -15.82 -68.1239 102.908 13.1134 -37.0831 -86.547 202.394
9900 2 -14.1634 -65.5716 -18.1053 -12.9271 -6.1803 -38.0126 18.8761 1.47435 27.4945 -83.7898 64.7097
17109 2 -15.0499 -65.8043 -20.4972 -18.9386 14.2847 -59.0521 26.7212 -22.7405 79.1255 -81.333 162.855
5035 2 -13.3804 -68.4093 -14.8988 -7.98873 -7.86255 -40.2754 -19.6489 -42.143 -9.4013 -81.1854 88.3063
12289 1 -13.2669 -64.2424 -17.9058 47.9312 -20.8773 73.7765 -33.5505 -17.6198 -9.93387 -358.094 108.56
12032 2 -17.9027 -69.0889 -19.9758 25.8051 11.8941 -106.338 34.961 -23.8625 39.2905 -78.7611 160.696
14983 2 -12.537 -64.2529 -16.4427 -68.902 -12.3654 -5.35548 -16.69 4.60744 -40.8523 -89.5601 97.7135
18 2 -10.0247 -67.4867 -18.8497 -128.685 12.2236 25.0782 -45.6789 4.20119 40.8205 -84.1836 182.053
366 2 -9.71333 -63.3287 -19.2504 -63.1527 27.7983 -29.6834 22.6214 -32.4884 0.909472 -88.2104 105.13
7376 2 -12.1971 -64.1156 -19.1409 -55.4269 39.101 -43.3937 13.5586 -8.30074 36.175 -88.4557 112.37
4809 2 -9.45329 -66.9718 -16.2913 -127.035 37.8649 -31.4336 10.9431 12.9826 -15.0528 -86.1537 148.7
4813 1 -10.9152 -64.0362 -20.1226 170.277 -172.506 70.8163 -48.9949 51.067 -71.6451 -362.056 351.743
7609 1 -10.331 -67.24 -20.4529 195.569 -71.3781 20.7581 50.1678 21.8658 -106.751 -365.885 313.57
87 1 -9.94701 -68.1071 -17.3088 270.584 -11.5146 -65.3254 53.7512 4.10454 -35.8298 -363.35 332.001
4723 2 -10.5933 -65.5594 -20.5783 -102.483 86.3681 -34.0206 -6.26377 -19.9179 68.6401 -83.8082 207.039
4727 2 -11.4262 -68.4951 -16.6277 -129.673 -13.4089 0.711094 -31.1404 9.47979 4.01631 -85.2857 136.329
12424 1 -7.59818 -63.8919 -15.8653 1.06334 -58.5538 126.34 77.5346 52.6511 50.9489 -364.381 246.689
14888 2 -8.29523 -65.0616 -15.0209 -33.7259 55.5846 -74.3768 -20.1543 -16.9898 -43.6864 -85.9769 145.153
7420 1 -11.814 -63.9832 -15.0108 116.628 -61.7805 19.6379 -14.1104 38.481 118.907 -353.287 267.187
12195 1 -9.48382 -66.1643 -14.8291 151.966 -146.656 120.37 44.9663 16.2457 68.4739 -358.787 318.844
9732 2 -10.7624 -65.1832 -14.7709 -79.8515 52.9153 -60.9826 -17.9194 -19.9254 -41.2914 -90.1623 150.822
14791 2 -6.49727 -64.8779 -16.6644 24.3456 17.6821 -72.9216 -55.8561 -50.1256 -24.318 -81.3061 165.918
4836 2 -5.2934 -67.2523 -17.8407 -26.9982 -11.7384 -11.9198 -14.1824 -33.1467 24.1325 -81.2609 76.6603
7658 1 -3.17191 -63.5262 -17.2995 66.135 -76.2869 101.743 85.7436 -11.66 32.2055 -371.452 228.47
5367 1 -5.27858 -65.9545 -16.8219 12.4841 -18.2274 101.883 91.0552 98.2218 3.71458 -373.119 256.004
9597 2 -4.06968 -64.8784 -17.2672 -26.9454 20.985 -56.5696 -34.4811 -19.6615 -9.42846 -81.8089 97.9187
2528 2 -5.17604 -66.4252 -15.2636 1.69002 -12.401 -40.618 -29.3982 -40.7579 -29.8945 -81.247 107.934
9794 1 -1.52098 -67.9141 -16.8126 37.8999 -15.6516 62.6491 41.2967 32.807 19.7564 -370.344 119.674
7208 2 -1.53908 -67.5529 -15.2388 -33.2858 3.56941 -4.27191 -10.7779 -10.6696 -22.2549 -81.7112 57.5036
12234 2 -3.00862 -68.3418 -17.3567 -29.5602 -29.3851 -26.1505 -17.3656 -4.83599 -4.55851 -82.8033 32.3767
15356 2 -1.74849 -64.0432 -17.7732 -22.8859 22.9388 -56.4297 -42.8805 8.91981 -9.19251 -82.1196 103.782
12472 1 -4.40003 -68.648 -18.2059 94.3315 73.4258 6.53258 -15.9331 0.384926 -3.48118 -369.125 84.3124
7581 2 -3.84448 -68.9185 -19.7015 -38.7806 -57.8945 -10.4469 -5.12258 14.3442 -13.8218 -85.0551 54.5786
14897 2 -2.98346 -63.0475 -15.7779 -35.6508 36.772 -55.2322 -35.9214 5.48849 3.08687 -81.9001 105.055
12735 1 -1.26516 -66.2349 34.6734 -35.958 25.8724 108.796 25.4894 8.02111 -26.958 -364.188 141.947
5156 2 -0.884662 -66.5815 -17.5067 -7.09787 -14.856 -47.6998 -10.1806 -9.48946 15.4842 -83.5171 51.9044
9955 2 -0.846575 -65.4742 -19.776 -3.76327 -7.28677 -39.3564 -23.4693 -10.5962 5.41606 -83.2181 56.8431
7514 1 -0.602155 -65.0638 -18.2682 -2.24476 20.3176 83.0176 36.3797 13.6247 -24.3179 -368.861 110.256
10086 2 0.771733 -64.1644 -18.2785 -17.1268 3.11634 -42.6551 -27.5358 -20.362 -17.5642 -83.4016 77.6032
7383 1 2.20574 -63.294 -18.1859 105.676 -63.1875 55.1669 116.775 27.7667 36.9961 -366.018 264.321
17819 2 2.827 -64.1882 -16.9664 -18.107 -9.43372 -27.1819 -54.2257 -1.02333 -3.87311 -84.7965 95.4239
12709 1 2.67758 -65.5359 -16.072 -18.9364 70.2487 62.0364 114.205 -4.26919 -15.8168 -366.469 217.308
7949 2 3.14039 -63.6134 -19.4887 -49.6019 7.40148 -7.4161 -96.2992 -13.6432 -7.86678 -86.7583 176.604
17493 2 2.75838 -66.9704 -16.9411 6.23425 -0.491958 -49.7203 -44.8636 -3.90621 20.6058 -84.4161 100.785
14777 2 1.77666 -68.3883 -19.0855 12.7154 -17.4478 -35.9651 -16.6022 10.2688 1.66937 -84.9822 54.4321
12772 1 2.93566 -68.3593 -17.8367 -32.0739 35.6623 86.3409 40.8521 -25.6 6.46625 -364.493 132.994
15074 1 0.904609 -68.6734 -20.4629 3.05977 -12.4594 89.3573 46.0367 -4.85609 3.7422 -363.497 124.492
10271 2 4.32893 -68.5211 -18.6312 -14.774 -26.3679 -43.1297 -28.5798 2.39581 -17.2746 -87.6131 63.0285
15358 2 -0.352539 -67.5934 -20.9352 25.0071 -24.698 -55.4636 -33.5828 2.08314 1.27129 -86.1993 91.3652
12267 1 4.50486 -63.9532 -20.2568 94.8306 44.4865 25.4767 236.925 -24.3711 17.3632 -356.863 418.258
10212 2 1.29729 -65.2284 -15.2895 -1.69461 -52.2291 -25.4367 -35.0104 -10.2192 -0.275014 -83.4538 76.8657
12491 2 4.53848 -65.4419 -20.7754 -33.7893 -16.9188 -38.339 -58.4521 13.1519 -18.3472 -90.3475 110.276
7385 2 3.97872 -65.7088 -15.0829 8.03316 -37.6617 -15.1309 -51.349 13.8982 8.2492 -84.7079 101.291
7932 2 5.59396 -63.987 -18.9919 -44.8783 -61.0175 -1.31104 -108.655 24.6966 18.6124 -87.9196 202.851
12603 1 6.81243 -64.1621 -17.9779 111.093 116.995 -49.6327 178.336 -65.6518 -54.7091 -361.533 379.654
5257 1 7.737 -67.2928 -17.6986 -17.119 70.2346 17.6526 84.9788 30.3936 -20.4183 -358.274 177.45
10159 2 7.28731 -65.693 -17.7813 -28.2698 -63.9555 12.4995 -68.1548 16.9224 22.8474 -89.1157 144.051
10181 2 9.16325 -67.2542 -18.5135 58.5815 -71.1689 -40.6897 -87.5656 -15.6179 41.2166 -88.8153 206.497
14981 2 7.57926 -68.1162 -16.335 -29.2103 -7.01245 -22.4028 -24.8285 12.9535 -0.920211 -86.4815 52.3761
27872 2 6.44268 -63.5643 -16.5337 -62.7747 -34.0562 -7.3993 -95.5755 54.2802 41.2118 -85.1584 208.9
22634 1 10.1242 -66.3595 -19.5354 -37.719 176.992 54.6146 267.716 -59.2574 -110.234 -358.402 544.799
20060 2 10.3915 -64.8403 -16.0125 50.8953 -99.2142 -6.45426 -33.0259 32.2232 95.7681 -84.4672 226.086
17695 2 7.98856 -63.2413 -18.6226 -41.5988 -21.8589 -22.3754 -56.1073 40.2959 13.9707 -81.286 123.615
14891 2 6.8167 -68.15 -18.6317 -9.98057 -2.86358 -33.3372 -37.9402 -11.9207 -5.17914 -88.8972 74.75
10256 2 9.16322 -65.6328 -20.595 -12.6486 -80.8115 -7.70699 -143.068 28.5797 6.83422 -86.6219 262.684
15062 1 6.62786 -68.7614 -15.1399 109.661 -10.5944 -9.20153 69.6668 -42.0119 -32.6396 -362.587 193.254
12563 2 5.45867 -68.051 -20.7874 -11.1794 17.6243 -21.9121 -39.0835 11.5785 1.10827 -87.3741 79.0089
7576 1 6.71096 -63.1455 -15.0303 80.1353 56.655 58.7741 203.144 -122.96 -73.2431 -365.094 430.999
17477 2 10.83 -65.3288 -18.5422 0.29062 -51.6906 -32.5135 -68.0261 69.3944 84.8191 -84.1153 228.003
12650 1 5.68133 -68.9348 -19.4748 28.5865 3.73471 60.4054 86.7686 -6.1265 -6.05073 -359.65 158.838
4891 2 8.38925 -63.1673 -14.8985 9.05701 -117.405 -22.8542 -36.8272 68.205 30.5908 -83.5711 183.868
20139 1 11.5347 -65.1106 -17.139 -8.98257 99.4517 69.9331 68.0879 -140.027 -219.348 -365.997 475.92
7530 2 11.3157 -67.1915 -20.3382 -40.9436 -116.959 -7.61202 -115.233 24.9282 52.2072 -91.0116 243.516
15203 2 12.5808 -63.8769 -17.2717 -65.6895 0.946673 -50.3335 0.265325 73.2417 52.2841 -81.121 167.174
27552 2 12.205 -66.6045 -16.7674 -13.6031 -59.9834 -6.0851 -68.1864 74.671 105.683 -87.77 258.338
27785 2 14.4833 -67.7371 -16.9686 19.0447 -71.4577 17.08 -41.5421 64.7727 72.1174 -89.9732 203.429
19971 1 12.892 -68.0802 -16.5946 3.06668 97.5568 -81.5055 119.736 -166.93 -98.9027 -356.362 424.293
25165 1 15.8861 -66.9699 -16.8485 -27.2535 120.108 0.577959 94.3125 -5.38216 -162.881 -358.228 353.201
17576 2 15.5999 -65.4183 -16.3975 -26.5137 -2.27324 -43.9468 -52.9287 15.1007 99.8946 -85.8981 200.847
29788 1 15.3597 -63.8646 -15.6109 104.201 -1.58008 126.779 80.0087 -82.0412 -145.892 -362.15 342.545
27585 2 16.7823 -67.294 -18.1803 18.2522 -128.326 34.2661 -23.1259 -47.1892 47.5858 -86.6011 197.907
12382 2 16.6935 -67.7871 -15.5861 -1.04067 -27.528 -0.0252187 -36.5589 -10.6081 43.4929 -92.6944 103.69
20351 2 12.9454 -68.5571 -15.0582 1.38133 -63.1484 34.2123 -36.1628 38.3158 18.3595 -88.8292 129.226
12662 1 13.7382 -63.0159 -20.9003 132.911 -54.0624 -30.1399 -12.4589 95.7742 31.9833 -405.424 249.221
20092 1 12.5019 -68.0261 34.795 74.6501 302.655 -57.165 113.715 2.10159 -32.1524 -349.086 375.931
19788 2 13.9695 -64.4444 34.4074 -17.9645 50.8069 33.6028 15.2544 -61.4304 7.51307 -66.2562 126.613
2582 1 17.8354 -67.8753 -19.3143 18.1317 263.468 -143.894 -71.1933 59.9707 -19.0837 -357.639 391.511
2496 2 20.8323 -66.511 -17.0132 -29.2768 -71.5232 27.2772 66.866 -12.855 24.8561 -90.2446 152.101
22635 1 21.9311 -65.2745 -16.7644 173.514 -5.39526 -8.56214 -104.461 77.4357 -31.9434 -356.505 293.89
29676 2 21.7119 -63.5852 -16.5753 -105.616 56.5467 -17.7719 33.4619 -61.4692 10.2279 -83.3667 186.485
27758 1 20.5308 -68.0704 -17.6182 -8.58105 191.24 -114.011 -106.953 17.5047 -15.1381 -351.358 328.687
19 2 19.2423 -68.1081 -18.5145 -30.9314 -124.545 61.8203 43.2293 14.7522 7.43415 -90.7218 180.206
9801 2 21.8519 -68.3462 -18.5066 6.89345 -76.397 69.1634 15.9932 -30.0892 24.6268 -92.0089 145.96
2503 2 18.2468 -66.6865 -20.3952 -57.425 -86.9426 70.64 48.5806 -33.2791 -48.8677 -85.4349 196.517
27582 2 22.6757 -66.0129 -15.5424 -76.6173 -16.9037 33.2984 28.3382 -36.0327 -1.7233 -92.6962 124.084
27463 2 22.9139 -65.2245 -18.0851 -103.501 19.1215 6.9646 41.0836 -16.3796 9.56996 -89.6636 140.842
2393 2 23.1652 -68.0793 -20.8352 -29.8099 -59.5022 70.5706 -5.61124 28.1618 9.18415 -95.3466 129.094
29773 1 23.2677 -68.3579 -19.2571 47.0336 85.3469 -107.061 27.1829 19.9115 -65.6863 -345.998 217.87
27732 2 24.2047 -67.2075 -18.5793 -60.1548 -18.7375 43.0143 0.0131908 -22.3734 39.7905 -94.6173 119.741
20441 2 25.3056 -64.7274 -17.5555 -87.4274 59.3181 2.2198 26.6627 -9.25424 24.8301 -89.4001 143.718
29764 1 25.4592 -63.776 -16.1592 142.738 -169.287 84.7319 -81.6012 -27.1724 -17.0583 -360.351 325.099
2497 1 24.4065 -65.5597 -18.6143 179.659 -67.1153 -61.7578 -37.9866 69.6618 -58.2425 -352.575 297.772
27245 2 25.2522 -65.3475 -19.94 -99.8981 51.498 29.9353 16.7373 -25.25 1.40254 -90.5907 151.262
17400 2 28.0941 -65.3208 -20.1768 -99.8307 52.8237 -18.1234 68.5001 34.9603 -10.4014 -91.6067 188.612
25174 2 26.9738 -67.592 -15.6878 -46.8082 14.0897 30.2273 6.89879 19.3737 32.1577 -92.3687 96.5551
25041 2 26.4307 -67.42 -20.4995 -94.7028 -0.469091 18.0627 46.4959 28.3573 -10.2831 -97.1431 142.074
22573 1 26.6061 -65.7079 -20.7722 183.899 -102.156 3.58825 -110.826 -24.1518 35.4781 -348.85 324.243
25087 2 25.8406 -64.973 -15.2169 -38.3424 36.1046 -21.9526 27.8092 24.1555 -18.9847 -88.261 98.7045
2403 1 26.6476 -68.8695 -19.7467 152.675 -30.3078 -140.215 -47.2508 -66.4247 86.6543 -340.663 328.839
29864 2 26.6524 -68.9348 -18.1459 -90.4147 11.374 31.9478 5.00823 60.9655 -49.9467 -96.2631 177.73
2679 1 26.914 -66.1789 -14.776 40.3362 -14.19 12.175 -65.0289 -67.3188 2.58076 -354.939 168.915
25172 2 28.1562 -69.0287 -20.3049 -45.7983 11.868 26.3343 3.62021 36.0172 -21.4852 -94.0535 98.4112
29786 1 27.0576 -69.0543 -16.5679 131.366 -91.1489 -49.2064 15.0116 -43.1181 6.58436 -344.576 219.824
5283 1 34.8572 -67.7015 -15.8504 111.675 -57.2445 -82.7024 -38.9813 63.0884 -62.9253 -351.662 248.717
2818 2 34.903 -66.1893 -15.3462 -50.7229 30.5064 -19.9079 48.2966 -19.6175 -9.24076 -90.6499 115.987
4803 1 29.707 -65.205 -20.5042 175.56 -87.4897 30.967 -148.652 -98.1235 44.0136 -355.539 391.223
2129 2 30.3162 -64.0431 -19.5181 -111.251 48.5506 -31.3614 57.2867 53.6629 -1.10715 -88.7484 194.011
2518 2 30.719 -63.7934 -17.0749 -112.615 79.2865 0.149307 11.4857 38.4781 -30.8589 -87.8344 188.671
2314 2 31.4451 -66.4789 -17.115 -84.907 40.8165 5.42649 7.07718 67.2323 -5.18244 -90.0058 162.483
4542 2 32.9809 -64.6571 -15.9751 -82.3217 57.7771 -2.8131 26.8757 38.8146 -45.0936 -88.4721 166.124
205 1 31.4592 -65.0329 -16.3317 184.097 -103.786 -39.9384 -0.852588 -102.99 71.5537 -356.844 340.229
7118 1 31.9944 -68.0452 -17.4339 85.4934 -34.7058 -17.5816 -23.004 -80.4801 -25.6592 -352.735 188.883
7207 2 33.4671 -67.8811 -16.7638 -66.9566 14.4424 25.1966 2.1184 5.85799 24.4068 -91.9184 97.5721
2311 2 32.3387 -68.6181 -18.9541 -20.9963 -12.8999 5.32901 -6.60782 19.2661 14.0375 -88.995 48.7967
36 2 34.5217 -68.4635 -20.3588 -22.0288 -10.0207 -20.5038 25.3431 -27.6342 0.541524 -86.9687 65.9308
14896 1 34.2823 -64.6488 -14.9977 126.711 -118.142 23.3657 -123.244 -5.3341 87.1563 -356.357 337.298
431 2 29.7938 -66.908 -20.7423 -58.2525 43.375 -29.6962 33.4648 46.5398 -18.9954 -89.5652 138.497
30 2 30.7403 -65.0465 -14.8472 -69.7963 37.9923 29.4085 -5.25857 35.2487 -11.8707 -90.245 122.474
4917 2 34.8293 -69.0382 -14.8988 -75.9886 32.728 54.5443 1.41001 -11.3671 36.565 -94.7285 138.1
113 2 -23.2582 -61.3229 -15.4304 -120.228 51.8239 -53.3569 2.47426 16.0955 -30.8359 -85.7061 161.915
10219 2 -21.8585 -61.0173 -20.0361 -7.21832 22.8731 -73.1717 35.6232 -17.7675 -3.24825 -85.5098 109.662
4802 1 -23.3575 -61.4963 -19.4581 87.287 -7.47931 47.1353 17.6421 40.8952 -34.3408 -362.729 127.58
17412 2 -23.3908 -60.7044 -17.9554 -60.7201 2.97263 -5.11583 2.18312 -33.1845 19.7028 -85.8456 89.9419
27469 1 -23.531 -60.0257 -16.3704 139.41 -82.2681 102.822 -43.2134 17.9567 -16.1901 -361.422 222.991
12 2 -22.4323 -58.8231 -16.0338 -18.8947 41.416 -64.0625 58.0511 -5.81751 18.7389 -85.4333 140.237
12409 1 -22.0173 -57.2509 -15.6383 -45.3701 56.083 95.2417 -90.8897 -4.16784 47.2605 -357.612 217.565
2569 1 -20.3006 -60.8518 -20.4539 -5.07003 -76.3519 202.732 -143.291 -52.8438 37.9945 -363.227 370.649
10366 2 -20.0235 -59.2335 -20.7265 8.19661 43.0624 -103.865 53.3703 22.894 -29.1001 -85.9046 174.18
201 2 -24.5113 -60.7495 -20.3367 -52.54 -8.50048 -11.2582 -5.4867 -1.99374 11.9808 -85.6834 48.5644
7521 2 -19.2547 -61.3626 -19.3055 11.4126 7.27426 -97.1975 79.7159 32.6561 -21.1051 -86.2382 186.985
285 2 -24.986 -59.3235 -16.037 -44.6446 46.2991 -69.2252 3.32548 4.96963 8.43289 -89.5564 106.916
10246 2 -14.0968 -62.8379 -17.9672 -5.21534 13.0799 -60.0861 22.3084 13.0719 -13.0228 -90.5257 82.848
7406 1 -17.8872 -61.9617 -18.6822 -23.1548 -4.05624 170.215 -165.853 -65.3262 59.7573 -360.004 374.299
5271 1 -14.0359 -61.2013 -18.2773 -12.6112 -70.7911 107.825 -64.4665 -22.4494 70.3017 -350.103 231.74
20203 2 -16.8052 -62.0732 -19.8766 14.9275 1.33092 -94.1442 64.0745 15.7511 -23.9703 -88.1273 159.321
2517 2 -14.9217 -60.3489 -17.2073 -9.88781 28.3341 -27.827 25.8072 -6.02965 -27.0843 -91.5675 82.3175
2600 2 -14.5856 -60.9888 -19.8053 -10.872 53.8448 -58.2259 46.6202 5.42327 -42.6696 -91.3204 146.853
5120 2 -17.2842 -60.8578 -17.5771 -22.1347 9.78785 -45.7591 60.7414 13.8376 -7.34944 -87.591 118.896
2701 1 -16.3866 -59.9957 -16.5383 101.458 -61.9812 23.127 -51.0147 26.8975 32.3578 -357.665 182.112
2490 2 -16.6734 -58.3689 -16.2854 -46.0298 23.824 -3.64392 -6.04081 -35.3398 -16.5301 -90.1042 91.6036
5077 1 -15.4983 -61.9215 -20.8235 35.2706 -75.4993 123.374 -90.8486 3.01709 33.9408 -360.8 240.904
7520 2 -16.4534 -60.9077 -15.1466 -66.3704 11.1715 33.3235 42.309 -21.9818 -32.2558 -86.3744 134.767
15079 2 -8.39293 -63.0229 -17.0669 -35.2172 10.2013 -30.7031 -27.5068 -22.7215 -42.2282 -88.2396 105.102
7478 1 -8.98297 -62.1985 -18.3238 92.9556 -32.4831 27.488 12.7056 76.667 56.1234 -353.844 198.434
32 2 -12.5823 -60.5605 -18.2292 -9.3353 59.3933 -45.8926 29.2629 7.00909 -47.6087 -94.7915 134.494
2760 2 -8.03307 -61.2787 -19.3023 -5.01459 10.1817 -35.172 -5.28231 -70.2746 -11.9717 -89.5244 130.107
9970 2 -10.1351 -61.0016 -18.0147 -73.5325 48.1954 -21.4364 6.8326 -25.4334 -27.5499 -95.2647 124.691
10157 2 -11.4131 -59.9379 -16.1535 -60.5145 37.1101 4.77118 19.3939 -16.9162 -41.3643 -96.0251 120.578
4993 1 -11.2355 -59.8289 -17.789 95.6638 -135.747 42.5042 -28.3589 -14.5305 111.08 -340.584 290.065
14898 2 -10.9809 -58.2742 -18.4455 -21.5189 56.6328 -33.2975 0.648198 25.9311 -53.4089 -100.776 133.203
10460 2 -8.08864 -58.1905 -16.0663 -0.871299 10.0758 -2.04435 32.0568 -11.2411 -56.0812 -95.177 114.155
15063 1 -7.50297 -57.1808 -17.299 -112.729 50.8432 7.7458 -49.3212 33.0144 64.3301 -341.209 211.06
7489 1 -7.90603 -60.8721 -20.8631 -36.0054 -22.778 106.647 6.27701 117.156 1.56053 -356.135 244.826
2735 2 -11.1637 -62.4195 -15.0296 -77.8011 48.2925 -9.57565 22.5583 -21.4985 -33.2926 -92.8807 134.87
7593 2 -7.25929 -59.1944 34.7254 36.1479 20.7759 -60.9755 11.6569 -60.2648 34.9751 -91.4026 152.149
22608 2 -5.15393 -61.9214 -20.2484 -13.6778 23.4969 -83.4293 -12.9726 -21.8738 -0.595114 -86.7516 103.834
5024 2 -3.44731 -62.2835 -18.3069 -52.4304 50.9309 -30.7099 -30.4217 9.26591 -30.8865 -82.9285 121.681
10182 2 -6.1355 -57.8638 -17.8224 82.8839 -27.6166 -19.5764 2.45865 -31.9388 -23.552 -93.2029 127
12484 1 -4.52634 -58.3537 -17.9294 -65.5231 14.2604 29.5264 23.5222 35.9831 40.5873 -351.695 135.287
17759 2 -4.36482 -59.6233 -19.0019 -3.29294 31.075 -30.0579 -8.27871 -15.8076 9.44324 -89.3419 63.5622
10046 1 -3.91096 -61.1385 -19.4951 70.5582 -78.1354 87.9643 1.08421 18.0495 9.99111 -361.38 162.115
2676 2 -4.02603 -59.2561 -16.6191 -2.59883 -5.18475 -15.4349 -17.4664 -10.3282 -44.6453 -88.2857 85.7502
310 2 -1.8612 -58.5472 -15.4192 36.5145 -45.0102 -48.6724 -4.44083 16.6072 -56.7821 -90.5421 132.353
7299 1 -3.22783 -59.3326 -15.2115 -5.37784 34.7458 43.716 34.2212 5.04781 120.46 -358.313 221.748
7470 2 -2.88071 -60.9978 -20.6953 -19.0241 29.4968 -77.6718 -3.76326 -13.0137 0.954081 -88.3798 95.8789
569 2 -2.64605 -60.864 -14.743 -36.9141 22.7698 -50.2514 -14.942 -4.41334 -33.1698 -85.3107 92.5472
5458 2 -1.18134 -58.0279 -20.66 -26.528 15.7743 -33.0009 -67.6854 11.2211 16.7404 -94.1186 130.643
15273 2 -0.868172 -57.9769 -17.8121 23.4704 -32.4059 11.6778 -37.0648 44.7319 -17.6755 -92.5395 116.892
17666 1 -0.553557 -58.1254 -16.2 -84.6875 83.5368 27.0211 27.3133 -77.9959 84.8534 -350.369 253.129
7661 2 2.11175 -61.5562 -18.1941 -86.4599 78.8683 -15.7479 -72.7645 13.6359 13.8316 -84.6592 194.058
15208 1 -0.265169 -57.7839 -19.3445 -18.2089 4.3719 21.696 135.256 -90.2618 -28.0639 -349.955 287.902
12671 2 1.03013 -58.8117 -19.1992 -5.15919 -7.33655 -10.544 -68.3239 37.0644 38.0101 -89.7014 149.94
22674 2 3.47034 -59.183 -19.5069 -84.212 30.4336 -2.16682 -23.3767 6.71921 30.7248 -86.7145 122.784
15345 2 0.526661 -59.2996 -15.9942 9.70862 -15.8926 -20.1431 -28.8099 24.5147 -19.0879 -89.9206 78.5385
10362 2 2.53833 -57.8389 -16.1454 -48.8835 -31.3796 -32.0849 -56.2099 3.62262 -40.3529 -95.4305 121.234
9914 1 2.13656 -60.1704 -19.2722 150.831 -83.4872 15.1253 144.763 -44.8594 -79.5442 -360.405 359.737
10026 2 1.66004 -61.0549 -20.5441 -67.2315 30.5884 -37.0633 -97.3504 1.59353 20.6593 -87.6182 192.995
10202 1 2.00336 -59.1246 -15.2337 75.1047 38.8085 54.68 125.073 -26.1275 79.1855 -349.854 262.263
22575 1 4.73794 -58.1033 -19.6503 124.542 -3.11741 23.4694 -15.8595 22.8992 4.56697 -364.301 126.491
7606 2 3.22751 -60.1692 -15.1583 -72.2312 18.5067 -37.0911 -97.3062 22.7028 -27.0579 -88.9717 196.03
12722 1 8.23185 -62.4029 -20.0749 92.203 -62.3284 160.91 35.9052 -49.271 -21.3698 -382.169 227.461
9996 2 9.71013 -61.9968 -20.5152 -34.8614 24.7125 -82.3015 33.1059 15.8305 -4.60949 -70.5938 112.825
10280 2 5.5645 -59.2536 -15.9367 -54.0192 5.5905 -49.3067 -79.1646 20.2857 -59.4759 -83.9731 184.235
2709 2 5.28029 -57.9999 -18.1115 -47.5235 -25.566 -37.0292 -16.3847 -17.668 -29.7123 -86.0812 68.9358
12771 1 5.68077 -57.8177 -16.5528 3.31021 65.4424 91.1285 22.5968 31.2859 137.498 -364.9 259.426
5135 2 7.1173 -57.1089 -16.411 69.3408 -57.3248 -83.8522 23.8325 18.0582 -56.194 -79.3023 179.621
15140 2 7.44279 -61.0242 -20.0817 -44.4271 110.068 -118.591 -42.3416 14.6842 15.0489 -73.242 218.017
12767 2 8.38133 -58.1984 -20.2531 -25.8185 -29.8338 -91.3098 -33.2516 -7.8679 -59.0176 -73.4776 134.142
7604 2 5.88129 -58.8235 -20.4773 -58.7832 38.1542 -46.6281 5.47413 3.4253 -8.23886 -78.8445 93.2473
5173 1 7.36679 -59.4044 -20.7648 65.2378 -181.958 157.479 51.8639 -0.334751 24.9511 -391.761 319.927
15256 1 11.0839 -61.2981 -20.858 109.3 -4.73019 87.7392 -55.0042 -10.5093 58.8207 -400.184 175.489
27944 2 11.3015 -57.6117 -15.1474 -67.8402 -32.5935 -51.928 1.8927 29.079 -46.0559 -78.8116 99.2251
5095 2 14.0066 -62.8085 -19.2803 -108.841 16.9986 6.41303 -6.51494 -22.1991 -42.8612 -68.8779 147.42
24982 2 14.8788 -62.8476 -16.8033 -95.1756 7.12951 -54.6909 -23.0057 36.1312 -11.5476 -78.9876 117.761
12580 1 13.5933 -62.6348 -17.7314 243.949 -57.7949 44.3154 5.80453 -86.339 47.0522 -383.044 315.865
15276 2 11.4909 -60.368 -19.6192 -63.4932 -5.5542 -62.3935 -8.57934 33.427 -8.06031 -69.1913 84.037
22961 2 11.6664 -58.4389 -17.6065 -51.6765 -2.53073 -91.2642 -42.5998 70.292 -7.70993 -74.9464 162.399
20071 2 12.8067 -61.1774 -17.7596 -137.808 39.0858 -58.8243 8.22339 38.1611 -24.7193 -74.4586 173.098
10166 1 15.0844 -58.6389 -19.6407 197.555 69.9047 -27.6408 -19.7641 98.0727 -38.0202 -396.733 269.49
7586 1 12.3206 -59.684 -18.4163 189.732 -38.0801 105.529 39.8704 -94.3407 9.72864 -390.213 267.506
27848 2 13.6358 -59.0516 -19.0649 -115.302 -16.5066 -12.0512 -1.49097 -4.82975 5.75275 -71.5671 101.963
17852 2 15.9444 -58.5775 -18.2662 -90.5213 -30.5466 8.05322 18.576 -26.0708 -2.77967 -70.4483 102.466
27772 1 15.6325 -58.264 -16.7143 130.693 -7.33822 82.1235 -34.8101 -70.5544 80.4878 -381.763 229.59
12850 2 14.6487 -59.2829 -15.9764 -93.3039 50.3653 -73.5831 9.77189 53.2423 -56.3496 -79.6514 191.084
22759 2 14.7713 -57.2275 -20.2542 -72.5799 -5.30666 1.79436 -11.7955 -26.1682 11.2604 -68.8581 88.9153
23 2 15.5802 -59.701 -20.6805 -67.743 -64.9152 -47.433 -11.3873 -74.1916 28.3143 -67.9546 140.251
12546 2 12.1964 -62.4857 -20.9293 -76.3337 9.52954 -17.1448 35.4275 -7.62803 -20.2502 -66.7608 104.708
15268 1 11.2445 -57.0857 -16.7122 35.1584 44.8739 146.56 46.8364 -148.424 103.294 -377.865 340.736
20183 2 16.9753 -58.097 -15.8249 -17.4166 -8.45994 -51.7878 21.4553 55.3621 -49.3138 -78.2554 139.431
25071 1 22.7069 -62.2262 -16.8405 299.107 -166.58 28.7361 -57.2999 66.9055 -3.72118 -367.896 432.871
24971 2 19.5272 -57.0457 -15.6156 -22.5636 -39.0637 -22.8221 10.4435 -23.1675 -40.6487 -81.3235 84.631
311 2 22.0071 -57.5968 -15.9967 -67.5905 13.0176 11.1645 -39.1578 -83.1554 -1.03085 -82.6596 178.043
25328 2 22.1938 -60.0264 -20.1392 -164.609 40.0653 27.7968 4.64442 88.3086 -2.54897 -82.1618 251.019
314 1 18.1766 -57.6688 -14.892 5.84557 3.81316 147.167 -39.4824 -59.0951 80.5346 -368.193 234.251
20264 2 21.1383 -57.2991 -20.2804 -127.723 24.4589 -7.73284 -43.1422 54.3183 37.4554 -80.251 194.783
24949 1 22.6292 -61.575 -19.9523 310.357 -82.5217 -101.254 -46.1763 -152.656 40.0854 -369.594 493.146
22466 1 22.1519 -58.4262 -20.7129 260.089 -90.7107 7.03763 34.0992 -179.388 -38.0571 -368.866 450.22
20456 2 22.8135 -60.413 -16.5406 -161.144 64.3889 -13.2005 18.5411 -58.8195 32.306 -82.5869 232.224
17482 2 22.6053 -62.141 -18.4252 -174.362 51.3324 33.1569 34.7939 20.1411 -26.6216 -82.5239 232.683
25160 2 21.6348 -62.5002 -20.8195 -145.069 24.7809 53.0235 41.7606 92.7888 -30.2774 -82.2931 261.257
2606 1 23.2188 -58.7799 -16.1113 209.877 -72.2031 -6.79803 29.6629 97.2933 -27.1518 -366.243 314.081
407 2 24.0397 -62.9408 -16.2366 -115.447 84.9682 -43.9192 43.888 -19.0558 17.304 -86.7575 196.757
15451 2 26.5061 -62.541 -15.9505 -65.0764 78.6439 -50.807 48.9994 29.1967 6.99915 -86.1629 169.456
25157 2 24.3291 -61.5094 -20.2886 -102.028 48.2319 12.3485 4.64742 49.3838 7.25715 -84.8749 161.285
27499 2 26.8095 -60.8494 -19.2222 -68.0024 20.5968 -32.504 1.73028 25.8458 6.03754 -86.9402 89.9288
2487 1 27.1737 -61.1007 -15.4711 97.964 -64.1421 30.5201 -29.4259 -35.3996 -33.1542 -360.872 171.897
9 2 25.7939 -57.4365 -18.893 -111.828 57.8908 1.36329 1.55809 10.6699 -7.79893 -86.3117 151.45
209 2 24.5005 -57.9094 -16.7957 -115.864 22.1681 4.33603 -10.4924 -23.5422 -23.7414 -86.3268 143.504
5207 2 27.7667 -60.3889 -16.7834 -51.1674 18.6505 4.74706 18.9636 -1.44603 8.40427 -87.9781 73.4449
25046 1 28.2133 -60.4454 -18.37 121.144 -87.0908 53.896 -37.8513 -48.0844 -41.9115 -357.804 224.466
2404 1 25.3266 -57.9171 -20.4102 195.148 -163.389 67.2812 -42.8737 -73.7989 48.0721 -364.845 357.547
22644 2 23.6457 -57.8712 -20.4331 -114.443 57.7449 -16.2818 9.25634 81.8402 5.29787 -84.2404 206.922
9892 1 25.8133 -60.9995 -20.5604 160.015 -101.543 46.1781 9.93859 -90.4851 -70.8706 -364.295 302.528
213 2 28.8075 -58.911 -18.9142 -60.4784 47.8645 -54.9678 25.9562 34.4465 -3.98654 -87.8739 129.615
27563 2 25.6459 -59.4135 -20.9405 -85.5691 56.5072 -40.4649 9.25281 54.2234 9.91752 -84.2589 158.696
2711 2 29.2043 -61.7616 -18.5545 -84.4859 42.1181 -34.0406 20.0257 22.0066 27.1057 -89.2526 130.564
109 1 30.4966 -62.7613 -18.3843 221.504 -129.646 37.4241 -65.1527 -61.0164 -17.016 -357.132 342.527
5070 2 31.6012 -61.5161 -18.1943 -74.8092 48.7195 -39.5589 44.6283 17.2888 17.7757 -89.149 141.305
2609 2 33.6007 -59.9122 -19.1915 -71.2016 15.1253 0.062252 25.7789 -17.8588 14.9393 -87.2735 99.9945
2615 2 32.8061 -59.1605 -16.8548 -62.4508 44.1001 -21.8206 19.5201 6.79678 27.657 -91.395 110.685
121 1 32.3391 -59.9825 -18.2139 111.74 -65.4581 56.4675 -65.7883 -11.7694 -58.9565 -356.04 220.199
9838 2 31.2401 -59.0074 -18.905 -73.4109 50.3731 -28.2585 33.2247 17.5772 2.18388 -88.8573 126.589
373 1 30.0318 -57.9092 -19.2745 158.641 -110.867 18.2381 -68.9463 -84.2723 47.5818 -359.825 311.233
25060 1 33.7383 -58.6692 -15.6032 77.8003 -94.3774 95.2867 -15.9821 21.0652 -6.60959 -351.175 187.591
376 1 34.4247 -59.8197 -20.5757 156.815 -78.0406 -28.7375 -55.0602 31.2906 13.5457 -364.555 242.057
27766 2 30.238 -57.2153 -20.7907 -81.6051 24.1098 38.0873 23.1024 25.38 -54.564 -85.3287 159.104
27780 2 34.0883 -57.0364 -14.9896 -20.1614 28.1575 -64.3866 24.0971 7.29159 -25.0532 -93.98 101.054
2301 2 30.3404 -56.6542 -18.2251 -64.7572 43.8937 12.0612 40.7117 34.9461 -0.204354 -89.9523 134.149
2394 2 34.6221 -58.229 34.9264 -118.59 64.2582 19.7167 18.8375 -26.064 -25.831 -85.4875 179.938
2877 2 -19.4935 -56.3703 -20.2923 54.4091 -46.1114 -27.6089 -8.0092 22.599 22.5759 -89.9989 108.814
7509 2 -20.6091 -56.3093 -16.0648 57.022 -68.0722 -16.5712 25.1635 -25.5874 -47.4618 -90.138 149.933
119 2 -23.0404 -56.3061 -16.4867 23.7235 -12.4872 -51.5004 13.5093 2.33835 -45.2325 -90.7217 104.632
7612 1 -19.5025 -55.1367 -16.37 -116.127 146.605 -0.370872 35.8564 44.927 83.5427 -348.998 287.863
27535 2 -19.6852 -54.7843 -17.9724 62.8033 -89.584 -34.8833 -29.757 -14.7054 -21.1573 -93.4535 150.088
4611 1 -23.7622 -54.9027 -16.3158 -100.502 58.3029 85.3588 -17.9239 2.05476 144.697 -347.064 306.653
10369 1 -19.5653 -54.8376 -19.6177 -146.554 159.327 -10.514 70.2478 -20.8506 -25.0324 -350.569 297.399
9719 2 -22.7837 -53.6454 -16.5372 66.8336 -52.1025 -50.3542 4.96906 0.732176 -54.8126 -94.3749 151.756
27700 1 -22.2057 -52.182 -17.13 -135.23 122.215 80.3597 38.5095 -47.3165 3.0766 -346.615 261.626
12617 2 -23.4193 -51.1985 -16.6517 41.7322 -18.513 -48.4214 -33.696 26.3681 16.122 -93.7887 112.239
382 2 -21.9159 -52.3162 -18.678 50.4405 -136.967 3.15177 -42.2535 20.134 17.1291 -93.6452 189.6
7594 2 -20.8471 -51.7174 -16.4889 55.8764 -54.5937 -50.0939 5.51947 28.4371 30.2203 -93.2501 130.323
419 2 -20.8616 -54.097 -20.2301 52.9236 -91.6247 19.6601 -44.2175 30.9461 0.27338 -91.8485 161.032