ITEM: TIMESTEP
1320000
ITEM: NUMBER OF ATOMS
29952
ITEM: BOX BOUNDS pp pp pp
-2.5112174984375557e+01 3.5097469333487673e+01
-1.0310517017687297e+02 1.1309046451887298e+02
-2.0951778812106220e+01 3.4819631958248870e+01
ITEM: ATOMS id type x y z v_StrAtomXX v_StrAtomYY v_StrAtomZZ v_StrAtomXY v_StrAtomXZ v_StrAtomYZ c_PEAtom v_VMS
7369 1 -22.1459 -79.3299 -20.146 478.802 -439.315 273.446 -90.7599 327.066 117.134 -315.684 1040.85
2204 2 -23.7034 -79.0999 -20.1424 -151.405 236.033 -156.483 72.0921 -98.8969 -79.1443 -107.299 464.571
4918 2 33.9389 -82.8963 -18.8445 -473.054 406.346 -200.614 30.779 26.2924 39.3999 -95.7909 785.848
22194 2 32.6861 -82.256 -16.0214 -431.742 328.504 -93.1382 94.3576 17.5654 -16.1498 -95.7702 680.898
27457 1 33.4584 -82.2362 -17.3998 982.825 -695.384 257.583 -112.735 -109.7 11.9166 -329.477 1483.21
27280 1 33.4277 -81.8391 -19.9209 887.221 -670.754 396.213 -97.4843 -115.57 -82.704 -342.69 1411.56
2338 2 32.0851 -81.6189 -20.6368 -383.784 314.752 -174.448 21.7691 184.367 38.8645 -82.7907 702.476
2573 2 29.905 -81.7128 -19.1254 -133.55 326.425 -275.417 62.9852 122.035 -6.31323 -65.9469 594.69
29603 2 34.5774 -81.4392 -16.5731 -405.104 319.062 -17.1863 60.1186 82.3147 10.2316 -107.719 652.275
22206 2 32.5464 -81.2607 -18.4913 -439.704 303.381 -199.886 14.4662 68.5354 -15.9947 -101.637 668.557
29776 1 31.1549 -80.9671 -19.4666 524.72 -618.529 478.395 61.8207 -323.984 28.7414 -367.824 1258.99
2128 1 33.4766 -80.9898 -15.3661 820.764 -529.757 -15.835 -143.759 -151.706 -42.6341 -323.493 1237.12
4620 2 34.3891 -80.6198 -20.2165 -314.28 316.388 -188.326 75.3628 -6.20824 -30.4262 -99.6485 595.066
2035 2 32.8159 -79.6881 -16.0834 -333.011 241.925 -6.2286 -20.0271 71.4747 -14.667 -104.25 516.366
1940 2 31.1491 -79.3739 -19.578 -222.953 297.297 -217.673 -129.34 146.165 -67.7448 -88.3702 629.275
7368 2 -21.6019 -79.1773 -18.65 -308.099 206.529 17.564 8.79873 -139.291 -61.5345 -110.952 522.59
11841 2 -23.2814 -78.181 -15.1421 -352.853 195.335 157.385 38.3766 -18.7402 -83.6474 -119.309 554.625
20046 2 -20.9663 -77.9752 -16.2939 -343.832 152.578 150.809 -7.32153 -103.639 -75.9241 -109.45 543.346
29569 1 -21.1223 -77.8148 -17.8774 665.152 -298.531 -232.469 -2.3035 272.991 110.616 -309.559 1062.86
2400 2 -19.8521 -77.3399 -18.7194 -281.817 161.619 40.4779 44.2844 -139.104 -59.1105 -106.875 481.672
2130 2 -22.3225 -76.769 -18.3134 -294.671 205.909 68.3325 -4.14 -117.043 -63.2103 -115.555 503.761
5312 2 -24.4801 -75.8386 -19.6897 -153.365 217.512 -25.0718 -34.3618 29.6738 -138.626 -107.067 412.629
29751 1 -23.1979 -75.4673 -18.7647 501.443 -504.959 -63.6699 26.7565 114.557 199.047 -313.44 961.168
1941 2 -23.4819 -74.8317 -17.2912 -318.474 263.081 94.6617 -25.329 -51.9869 -57.7986 -108.1 537.291
4503 1 -23.6936 -74.7064 -15.7341 696.054 -600.242 -265.269 96.1625 85.8981 25.829 -321.607 1187.54
2285 2 -22.3285 -74.5683 -19.7289 -226.426 263.46 4.14734 4.03568 -94.0671 -114.062 -108.219 495.805
2429 2 -24.4974 -73.4874 -15.1375 -271.921 279.252 100.167 -93.2737 -51.5877 11.8316 -103.081 521.21
1994 1 -21.9262 -73.2498 -20.5764 350.542 -386.429 -35.0104 -32.0417 141.554 182.038 -323.217 755.144
27515 2 -24.5353 -75.9499 -15.1673 -328.625 284.374 126.67 -62.9425 -13.9919 -25.2864 -108.975 564.231
7011 1 -19.5037 -77.5155 -20.2891 568.279 -339.426 83.7349 -103.255 372.67 205.494 -316.855 1092.8
5006 1 -24.7492 -77.4973 -15.0348 618.367 -493.463 -277.84 -37.951 -62.0579 87.2209 -306.555 1040.01
4910 1 -21.6318 -78.1326 -14.8775 743.759 -378.737 -277.243 2.54111 166.945 165.213 -305.035 1149.73
2395 2 -22.3813 -74.7224 -14.7445 -358.641 310.335 128.562 39.7208 -34.9183 0.0602117 -105.892 606.102
4590 2 -21.0264 -78.1709 -20.8761 -314.611 160.464 -84.9031 27.5675 -194.275 -119.063 -113.913 572.162
14885 2 -19.0352 -78.9285 -20.8046 -290.203 219.691 -140.432 -43.6121 -167.063 -109.94 -101.51 575.979
7501 1 28.338 -76.3542 -18.495 411.419 -283.671 235.188 132.201 -219.652 151.341 -346.135 810.923
29753 2 28.064 -75.9448 -20.1051 -166.899 99.1523 -71.4193 -50.987 158.121 -76.9705 -95.1975 393.798
4520 2 27.0632 -75.4655 -18.0234 -199.162 81.9204 -65.4166 -8.32111 110.089 -69.4108 -92.5632 332.148
29849 2 26.0469 -74.2095 -20.3527 -111.75 24.7709 -35.3431 -48.7279 182.057 -34.401 -97.5488 352.352
4719 1 27.3094 -73.8898 -17.8859 414.866 -154.506 -1.37377 179.421 -237.351 29.9148 -335.078 727.125
22459 2 27.8708 -73.8475 -16.3345 -272.595 71.951 75.5033 -82.1385 89.6219 29.8219 -95.96 408.599
5118 2 28.8015 -73.719 -18.5894 -223.709 71.2733 16.339 -87.7803 92.9861 -33.9349 -107.751 355.441
7273 1 34.879 -79.1117 -19.894 388.857 -585.974 305.664 -133.132 50.6845 223.82 -324.079 1042.73
27443 2 34.2369 -78.86 -18.4135 -249.857 289.699 -80.7519 48.1349 28.192 -86.695 -110.443 510.254
2116 1 33.2792 -78.5453 -17.1452 542.227 -563.971 45.601 84.9002 -177.41 108.315 -321.814 1035.46
29312 2 31.9392 -77.8772 -17.7345 -180.656 275.749 -115.276 -180.269 88.0708 -87.3629 -98.4386 571.311
4695 1 30.8025 -77.8918 -18.893 315.696 -548.48 393.731 396.54 -180.321 203.67 -349.328 1230.47
2358 2 34.3819 -77.7997 -20.6414 -180.453 244.58 -87.6566 -33.5579 43.5897 -195.706 -100.043 523.263
29661 2 29.1989 -75.8798 -17.1233 -267.3 122.139 -41.0011 -127.093 65.5489 -55.5674 -96.3402 430.53
2185 1 29.2064 -74.7035 -16.0235 591.722 -160.62 -228.163 166.816 -220.297 -44.8965 -341.407 925.482
2675 2 29.2093 -77.7075 -18.6144 -168.609 235.031 -198.658 -123.591 94.917 -81.2327 -86.6067 518.272
2417 2 34.3394 -77.8554 -16.1509 -266.882 247.298 80.5102 17.289 80.4214 -38.3091 -108.967 480.773
2117 2 31.0975 -76.52 -19.7063 -129.362 198.826 -113.678 -178.718 56.5568 -132.113 -97.1641 510.474
27333 2 33.2305 -75.4688 -20.6719 -96.483 127.822 2.81739 -110.282 49.0663 -189.353 -99.4205 434.939
7129 1 31.7219 -75.0923 -20.1841 170.094 -244.285 16.5888 277.353 -38.6497 274.292 -334.576 769.823
4927 2 31.5351 -74.161 -18.8263 -82.3537 112.9 4.26696 -111.619 37.6721 -50.1162 -101.064 279.075
5002 2 30.3838 -73.7468 -16.5836 -211.737 52.0119 135.115 -89.7478 117.01 47.6304 -100.136 412.834
27565 1 34.6273 -76.2508 -20.8427 270.327 -341.878 8.40674 137.801 -123.68 422.733 -333.067 960.216
25154 1 30.3451 -73.2744 -18.1389 331.799 -186.083 -119.061 139.796 -126.799 10.1565 -326.205 587.5
4716 2 -20.6157 -72.5365 -19.8434 -189.14 157.321 15.8232 106.718 -38.4374 -14.2348 -104.308 360.888
9817 1 -19.3829 -71.8054 -19.1421 164.528 -153.773 -38.4438 -286.572 56.6443 -45.6108 -330.26 583.219
7015 2 -19.5097 -71.6523 -17.503 -105.068 39.888 72.9231 141.333 -33.4011 6.81895 -101.634 300.506
4931 2 -19.6801 -70.2829 -19.5607 -54.2153 58.2518 26.797 94.1696 -23.7985 -28.1776 -102.599 201.954
4928 2 -19.8671 -70.0349 -15.1271 -77.701 -25.8787 143.638 40.5517 -56.3344 11.9446 -102.173 234.709
2531 2 -24.2622 -69.8452 -17.7298 -116.069 12.9942 135.367 -6.95126 -51.1121 -2.24896 -105.711 235.422
27380 2 -22.8981 -69.9597 -15.6027 -97.0569 24.6941 132.209 31.6326 -47.4495 -7.90588 -106.236 222.299
10085 2 -21.6677 -69.4751 -18.0481 -78.7053 39.81 104.961 38.1031 -73.6845 -5.78502 -103.718 216.232
4814 1 -22.9421 -69.2932 -17.0275 184.872 -37.9557 -275.823 -56.2136 131.99 32.3852 -324.071 473.421
2318 1 -20.8151 -69.166 -19.413 143.712 -142.465 -129.672 -136.246 82.8752 81.7979 -329.408 418.05
4860 2 -20.2408 -67.6929 -19.5657 -43.7604 65.0543 40.8978 83.0447 -54.7847 -54.9916 -101.266 220.366
4907 2 -22.8373 -67.7589 -17.0457 -98.3538 6.38033 122.871 44.0378 -64.5694 -46.0647 -104.116 247.853
5178 2 -21.7978 -69.2895 -20.7218 -133.784 74.0968 95.3777 65.9378 -33.1417 -35.9251 -102.986 261.345
12300 2 -17.9058 -72.1701 -19.5018 -71.9898 54.4239 1.12454 190.215 -79.9827 41.6135 -99.4117 380.809
12188 2 -18.3505 -72.2236 -15.1781 -155.503 14.2919 127.857 157.402 -45.6276 -12.2867 -97.6266 376.875
4627 2 -14.9736 -72.2348 -19.0239 -133.412 2.83936 15.0458 154.684 -146.13 1.90211 -95.5825 395.26
14597 2 -15.8221 -71.9662 -15.151 -172.234 -85.0168 139.56 161.939 -57.0814 -30.4331 -93.9687 410.919
7419 1 -18.9653 -71.0306 -16.1013 198.413 73.4231 -286.009 -203.848 119.281 11.1399 -332.041 597.878
9814 2 -13.6524 -71.7801 -16.9377 -168.028 -50.6501 91.6135 144.917 -74.6747 -13.0185 -87.128 361.878
12208 1 -16.3553 -71.6937 -19.6248 124.94 20.5486 -53.0228 -366.32 265.062 -30.7304 -334.892 800.106
7480 1 -13.5005 -71.6986 -18.6003 326.539 51.1414 -137.385 -256.241 259.971 -12.9842 -349.654 750.696
29584 1 -14.5158 -71.0919 -15.7334 262.245 224.523 -322.572 -407.476 98.4948 41.9188 -351.021 924.045
7089 2 -16.3634 -70.395 -18.6641 -61.2495 -34.5828 38.9437 160.009 -123.805 -28.7662 -103.829 365.173
12258 2 -17.7658 -70.0574 -16.5448 -81.9472 -70.6003 129.277 115.719 -83.2349 -26.0884 -101.62 324.571
1942 2 -15.246 -69.8187 -16.4181 -91.1603 -64.9798 150.148 208.407 -67.4424 -28.1957 -97.4724 446.014
7190 1 -16.5353 -69.4843 -17.3664 142.586 40.2965 -174.764 -319.656 190.089 94.5902 -332.78 721.454
4913 2 -16.6357 -67.9767 -17.9334 -52.6824 64.3379 32.4277 142.453 -88.8977 -40.2161 -98.9994 316.886
7380 2 -15.9143 -67.9805 -20.4512 -34.1844 32.4597 31.5515 98.6328 -115.575 -31.5107 -103.144 276.801
14770 2 -13.1587 -70.1184 -18.7972 -144.975 -39.9194 80.8363 198.6 -83.3177 15.8751 -99.0804 422.151
4810 2 -12.353 -72.1641 -19.7792 -182.481 6.51344 42.4862 60.8773 -156.319 -6.81241 -87.6362 358.296
12320 2 -10.5809 -69.4071 -18.2322 -117.639 -100.158 93.4442 155.378 -7.1853 73.6637 -84.3862 360.6
17466 2 -7.734 -69.2131 -17.8558 30.654 -204.172 -1.14821 116.59 -26.1419 23.7358 -59.5517 305.297
17039 2 -9.58026 -69.1971 -15.8859 -120.018 -171.292 91.0914 110.233 51.0748 -11.9221 -73.6636 320.51
12400 1 -12.1818 -68.9073 -18.3282 275.129 119.332 -235.218 -426.819 25.6296 -108.266 -340.794 888.186
4635 1 -9.20971 -68.847 -17.4621 96.5793 374.489 -100.093 -242.649 13.4556 -78.5081 -385.398 605.178
12321 2 -12.6315 -68.1752 -16.9346 -118.844 -68.2274 125.261 219.208 7.57739 25.6169 -96.1944 442.822
29496 2 -12.1684 -67.7362 -19.4441 -126.802 -45.2266 136.006 172.405 -30.2651 61.4281 -101.556 396.891
2132 2 -9.33969 -67.2435 -17.5297 -26.0986 -197.683 65.1008 160.699 -13.808 54.7041 -83.8654 374.738
15005 2 -11.271 -67.5275 -14.9613 -141.188 -144.388 149.849 167.835 42.9106 -7.53214 -90.3368 419.337
4926 2 -6.99194 -68.2214 -20.014 107.005 -245.947 2.77292 189.467 -43.6885 74.7343 -69.112 478.357
4722 2 -5.41256 -69.9833 -18.9411 48.9588 -84.8935 -82.2337 86.2064 30.4783 11.8393 -41.6348 207.532
17376 2 -1.85715 -69.0421 -16.1815 -29.7624 -244.373 -81.4555 42.4787 -34.8547 -42.724 -57.4101 228.407
14716 1 -6.35525 -68.776 -18.6122 -188.142 487.851 25.8312 -316.116 33.1456 -49.4192 -422.976 817.628
7422 2 -5.43509 -67.6017 -17.9351 145.852 -314.885 -4.04356 151.172 7.26056 19.8377 -60.9083 485.368
17194 2 4.12208 -72.1348 -15.8086 -120.512 34.0132 -107.737 -8.32366 5.97543 -18.796 -33.319 153.108
7338 2 1.76389 -70.1477 -20.0654 -121.511 -104.207 -112.282 -16.8616 -72.0896 152.856 -68.8917 294.557
17780 2 0.262068 -69.1819 -17.9169 -79.4095 -215.925 -1.88955 5.37524 -84.6927 71.4123 -66.1372 268.576
19893 2 2.39596 -69.1342 -15.7024 20.1053 -302.734 48.0762 -29.3936 -24.2178 -24.8588 -64.7594 346.761
22288 1 1.49138 -69.0574 -18.9502 116.892 380.148 18.1496 43.1965 143.085 -263.612 -389.105 616.879
14914 2 2.90684 -68.8889 -18.1131 16.4637 -239.075 23.4403 -29.7865 -27.1268 103.438 -73.3439 322.644
20551 2 0.0148054 -68.5082 -15.1682 -78.8144 -332.091 29.0162 19.2505 -39.5651 -37.8506 -69.8465 336.442
20354 1 -0.533784 -68.3936 -16.7782 85.2167 576.472 16.5478 24.9047 99.0683 35.0388 -395.107 561.043
9916 1 3.36611 -68.3107 -16.6562 -127.043 595.405 -128.179 88.1803 24.771 -7.15632 -386.552 740.321
19508 2 1.07522 -67.67 -19.7395 30.2262 -192.41 -15.1831 -69.7106 -22.2242 87.4797 -81.3885 283.792
17386 2 4.81667 -67.8152 -16.0473 39.4282 -256.152 67.6424 -101.258 4.45905 -23.5676 -77.1424 359.15
9909 2 -0.589008 -66.8873 -17.1485 15.2555 -264.389 11.6187 -56.8164 -19.2544 -23.1668 -78.1984 299.339
19929 2 9.74398 -72.405 -19.6178 -71.1742 -99.3739 -40.1161 -78.1437 39.6064 77.9512 -66.3816 209.5
12435 1 5.2927 -71.606 -15.0343 309.055 98.2701 179.577 84.4026 91.716 51.822 -443.013 297.601
25176 2 6.63988 -71.3728 -15.9146 -172.873 -99.633 -53.4055 -68.8659 -38.7929 -20.4017 -55.5685 175.72
17497 1 10.1219 -71.1864 -18.6974 44.0605 293.909 91.4208 192.065 -69.0037 -101.226 -386.423 456.646
15238 2 9.08482 -71.0411 -17.4913 -48.8377 -171.801 -18.205 -100.155 -16.9496 8.52033 -68.9119 225.826
22455 1 7.73621 -70.5 -16.6747 184.772 360.562 -33.5667 227.326 72.7963 -7.00457 -400.388 536.686
20193 2 10.0739 -70.1087 -19.9071 10.1596 -135.851 -40.7667 -102.056 57.7492 87.0147 -81.5524 283.625
9912 2 7.05384 -69.8007 -17.9812 -30.664 -204.004 24.4883 -127.311 19.8273 32.5634 -72.194 309.246
22483 2 8.12836 -69.4716 -15.4521 -50.3244 -203.352 29.7164 -103.639 -34.6125 12.673 -71.9174 279.949
20164 1 6.75707 -69.2937 -19.5364 -116.961 323.74 24.6182 247.775 -99.6492 -209.256 -379.267 705.124
10173 2 8.10977 -68.5686 -20.0329 65.1752 -133.725 -16.5866 -116.788 39.6452 84.9719 -82.9741 311.894
17378 1 9.70149 -68.631 -20.4152 -105.342 237.655 10.0196 174.889 -106.74 -130.62 -365.362 518.179
7686 2 5.69421 -68.1888 -19.3059 66.0682 -164.689 -6.60165 -110.334 21.9949 110.027 -82.2049 340.662
10160 2 6.20725 -70.2568 -20.7016 43.9331 -148.402 -51.3563 -78.1299 66.385 131.935 -75.4649 333.915
17568 2 10.8001 -67.8525 -19.5345 20.8029 -106.076 -29.7819 -99.2574 68.0506 65.1015 -87.7254 261.538
24884 2 14.1006 -71.5416 -19.1631 -106.472 -129.99 80.5244 -87.6957 52.3407 116.069 -82.2215 334.103
19986 2 11.6524 -71.0747 -18.223 -25.8617 -142.931 -35.7567 -99.555 61.771 42.7284 -78.4072 243.521
22297 1 13.2371 -70.6164 -18.2002 108.808 283.676 -47.1582 206.317 -202.89 -137.818 -365.35 624.782
17310 2 14.1467 -70.5156 -16.7971 -85.5278 -139.032 14.297 -76.0824 101.251 53.0848 -87.8065 273.393
17572 1 15.4459 -70.5718 -15.8894 281.05 229.293 -20.7512 61.8778 -95.8565 -132.011 -352.103 411.674
12765 2 13.1536 -69.0815 -18.7142 -26.2233 -101.406 26.4193 -116.651 91.8094 61.1002 -87.4739 299.483
22478 1 12.3215 -67.7019 -18.9805 36.9397 166.863 -24.1772 209.74 -163.731 -112.546 -357.659 528.159
20059 2 12.1944 -67.1245 -17.4444 -2.99078 -102.91 41.4908 -108.341 104.155 63.4537 -88.5855 310.232
25148 2 16.8188 -70.4858 -16.5297 -93.793 -136.296 9.1163 -4.40635 -17.3106 78.5803 -90.9722 190.401
10263 1 14.66 -71.7369 -20.6376 190.033 156.834 -159.507 160.698 -15.3173 -305.929 -368.95 686.024
22184 2 18.8883 -71.6698 -19.5414 -27.8066 -109.708 12.7207 -25.6994 -18.8471 122.503 -80.2539 244.412
24682 2 19.4645 -71.3567 -16.9337 -51.8406 -83.959 -25.3681 -57.2208 -82.7164 76.6782 -76.85 224.878
24830 1 22.4958 -71.304 -20.1948 -49.6761 66.8205 161.093 99.9272 -98.9542 -151.062 -355.506 401.537
29862 2 21.439 -71.1904 -18.9619 33.0378 -96.6554 -67.1577 -48.0024 -28.0029 82.7351 -83.3936 208.962
27555 1 19.8748 -71.0284 -18.5117 15.6194 237.194 28.3787 88.74 161.852 -228.902 -370.882 553.02
22479 1 18.4719 -70.0449 -16.7195 86.4211 290.49 -21.4804 -16.7701 143.027 -207.716 -358.25 516.68
24869 2 19.143 -69.5764 -18.1166 -14.7875 -129.884 38.8386 -12.2354 -69.6316 103.808 -87.6669 263.853
24970 2 18.7585 -69.0067 -15.5744 -11.4666 -165.202 49.378 42.6504 -22.291 99.5759 -91.215 270.896
4915 2 17.0888 -67.2821 -19.7656 8.7163 -105.475 97.7681 -34.8072 3.9027 14.8112 -85.2796 188.354
27460 1 19.6963 -67.8249 -14.9774 -112.076 441.645 -201.979 -95.2549 -54.5855 -144.344 -349.823 680.54
17766 2 17.5668 -69.8404 -20.7379 8.54899 -73.9265 64.6302 -14.834 30.9835 80.356 -83.2213 193.608
24953 2 26.4924 -72.5796 -18.193 -143.714 78.7135 17.2076 -134.394 130.842 28.6561 -98.2523 384.166
25145 2 23.5851 -72.5502 -20.2149 -2.33367 7.09545 -94.8043 -71.788 91.2808 61.2607 -89.5803 247.442
29822 1 26.3673 -70.982 -17.8116 274.471 -117.096 -139.066 312.996 -230.973 -136.877 -336.609 820.098
27486 2 25.8448 -70.8163 -16.2701 -159.524 -8.9472 140.859 -145.187 69.6867 77.0513 -90.8583 404.092
22458 2 27.934 -70.5972 -17.7129 -176.664 77.7866 100.712 -134.777 95.4268 60.0281 -104.274 404.633
2322 2 25.4697 -70.0914 -18.773 -82.1753 21.5561 37.2242 -131.344 123.234 55.5721 -100.361 345.266
27449 2 23.4371 -69.9648 -20.2537 -16.0137 6.37665 -21.4957 -60.1436 64.715 40.5005 -96.8158 170.267
4897 1 26.1749 -69.8669 -15.0507 328.714 114.889 -436.664 336.819 -55.6606 -103.395 -347.509 921.724
13 1 24.5548 -69.0135 -19.5582 113.481 1.28599 -86.077 204.293 -183.296 -79.8044 -332.129 524.525
4821 2 26.6424 -68.4391 -15.6869 -137.346 -56.2051 173.117 -142.519 28.8111 65.7579 -100.784 392.654
27283 2 25.7746 -68.0159 -20.0896 -73.4842 -8.80879 108.892 -97.3899 89.3477 16.8934 -105.71 280.906
29873 2 23.6534 -67.8471 -18.8124 -12.4364 -59.6312 83.4137 -99.7728 38.1734 68.7369 -99.0455 253.669
4920 2 34.8965 -70.9362 -19.8622 -77.5068 39.4664 95.4787 -27.2196 6.66672 19.083 -101.885 163.77
24984 2 29.3208 -69.8575 -19.7669 -118.711 54.6961 120.882 -65.2097 26.0469 12.1565 -104.87 247.312
19713 2 30.2679 -71.6736 -18.2452 -145.222 98.9116 103.341 -39.11 73.4094 19.4135 -103.831 287.382
2340 2 33.4538 -70.5021 -17.376 -80.3732 6.28002 147.73 -31.3071 20.9405 -0.372933 -102.602 209.834
29750 1 33.3484 -70.2381 -15.7925 206.763 -15.5258 -310.141 93.9329 25.428 24.8042 -321.474 481.617
2420 2 31.8912 -70.1539 -15.0811 -90.3302 9.34107 158.043 -52.94 33.1006 -9.77789 -106.75 242.59
2414 1 29.4126 -70.2822 -18.2333 250.62 -146.4 -245.031 143.313 -129.097 -81.1338 -326.061 581.269
5104 1 34.5218 -70.0657 -18.5257 180.198 -31.2772 -291.193 66.9424 -11.2944 -21.7782 -328.535 427.193
2589 2 30.0388 -69.1471 -17.2648 -76.1378 19.7658 150.326 -68.2924 77.8013 34.0198 -103.454 272.74
12187 2 34.0316 -68.8569 -15.3456 -108.786 -4.07612 144.857 -45.5635 -41.3605 -28.7962 -109.367 250.176
4806 2 33.9614 -68.6283 -19.0195 -49.9282 -23.43 112.312 -31.1868 21.8359 4.98403 -102.371 164.766
220 1 30.0571 -67.7214 -16.3696 94.9071 -0.774242 -283.792 158.198 -125.292 -12.1607 -327.038 488.825
7504 1 33.4843 -67.4357 -19.9667 31.3094 59.1421 -178.584 19.7286 -56.4992 -25.2734 -338.157 251.658
29790 2 34.1901 -71.3393 -14.9624 -154.338 73.7248 113.707 -55.8074 -48.1218 -17.6913 -107.076 282.77
5015 2 30.3819 -68.1569 -14.8365 -60.8448 1.33146 169.66 -101.189 59.8915 -12.1197 -105.138 290.837
9808 1 -19.4602 -66.5319 -20.3987 15.4739 -63.2879 -67.0509 -168.67 85.3379 72.1877 -333.962 359.644
10103 2 -23.0741 -66.4011 -19.2329 -68.2247 16.7208 70.2272 74.7202 -74.1724 -61.0578 -101.691 243.027
29798 1 -22.7302 -66.3102 -17.6385 143.068 -32.467 -208.817 -180.045 132.268 109.913 -331.913 528.056
4917 2 -24.9607 -66.5159 -14.9384 -57.9465 28.0308 132.613 -6.72987 -42.035 -15.9897 -102.984 183.099
2666 1 -24.0343 -65.8226 -20.364 96.607 -32.0632 -129.138 -117.699 103.477 130.011 -339.939 403.559
2168 2 -23.9647 -65.477 -17.002 -28.7794 -5.64961 97.6799 53.9404 -72.6518 -31.8065 -99.0947 202.979
27287 2 -21.3579 -65.4676 -17.3587 -83.6881 -1.87236 125.843 131.205 -54.5005 -32.4107 -99.6094 311.705
7674 2 -20.1486 -65.0731 -20.3554 -35.3114 16.9068 43.184 90.5712 -46.7161 -22.6342 -101.635 193.605
5106 2 -24.4021 -64.3225 -19.8899 -43.9048 26.1595 43.576 29.1173 -49.7197 -98.3925 -94.9352 213.156
2510 1 -20.4642 -64.1256 -17.2874 106.953 120.454 -268.094 -276.216 94.9741 60.4311 -338.127 642.501
12578 1 -20.7097 -63.5714 -20.2576 22.5667 -11.8377 -66.9281 -183.287 56.8902 100.759 -332 383.488
27586 2 -20.5658 -63.3474 -18.7138 -29.6328 -26.7866 71.4153 109.513 -18.9482 -51.5263 -99.9072 234.419
5204 2 -20.9685 -63.2076 -16.0751 -81.3198 -71.8862 142.862 100.961 -60.0109 -23.3293 -95.4581 302.072
7597 1 -23.8137 -62.8905 -20.279 96.5912 -38.2143 -76.6569 20.932 27.0511 170.615 -342.984 340.104
27575 2 -23.7616 -61.6635 -19.2366 -41.8957 1.00149 54.3653 -29.7603 -34.6214 -21.469 -94.2817 120.883
2228 2 -22.2784 -63.3072 -20.5928 -44.8903 9.499 21.4327 26.6729 -11.362 -73.258 -99.9739 149.571
5283 1 -25.2256 -65.3951 -16.0062 61.9381 -17.6074 -192.515 17.9437 97.4773 5.68888 -335.824 283.552
7116 2 -25.0033 -61.4506 -14.8833 -53.4476 22.0346 77.5417 41.6405 -20.5745 -44.0033 -91.5606 158.899
9722 1 -16.4721 -67.1125 -19.2707 48.0003 -114.871 -7.54395 -229.885 152.633 41.3447 -332.447 504.109
12032 2 -18.0177 -66.5207 -19.767 12.58 35.2699 3.62748 89.5368 -49.2162 -31.4314 -99.9024 187.294
5035 2 -13.4906 -66.156 -15.2726 -81.4753 -20.8262 150.976 135.867 -23.9184 17.2384 -94.1379 318.749
12430 2 -15.4168 -65.9153 -18.9436 -55.9752 58.0619 35.4217 111.792 -48.3296 30.728 -101.485 241.387
27289 1 -15.1767 -64.4118 -18.6545 115.622 -111.541 -119.71 -220.695 45.4867 -55.037 -330.085 463.614
2622 2 -18.9102 -64.269 -16.9736 -12.7802 -63.4657 112.546 150.199 -60.6785 -12.3485 -97.6094 322.196
9900 2 -13.9941 -63.7897 -17.8371 -45.5608 5.31583 76.7308 107.862 18.4632 2.95043 -102.69 217.425
2623 2 -16.5516 -63.7784 -18.0052 -12.5553 7.5785 68.2315 128.301 -45.5057 3.82345 -101.34 246.871
17109 2 -15.0305 -63.5719 -20.0834 -77.6645 57.7716 96.1931 83.9704 -17.4482 25.2042 -105.363 221.348
12021 2 -17.0552 -63.3884 -15.4873 -7.27225 -98.747 137.764 152.433 -45.2063 -35.6284 -97.1006 349.738
7228 1 -17.6194 -63.3356 -16.9347 -0.541309 110.691 -223.535 -308.131 100.741 45.202 -337.256 638.994
7580 2 -17.9599 -61.7792 -17.3351 7.17049 -47.3644 81.4916 155.705 -35.0215 -47.4098 -100.257 309.363
12289 1 -13.1692 -62.438 -17.7299 39.0055 36.5561 -183.083 -201.427 -80.4818 -19.8935 -323.43 437.176
5114 1 -12.3163 -66.8929 -16.1075 240.597 111.275 -271.929 -325.662 -14.328 -64.2717 -343.545 737.769
4727 2 -11.4278 -65.8273 -16.9767 -128.667 -34.7106 102.672 149.215 26.735 42.5429 -97.4308 339.086
87 1 -9.90772 -65.7262 -17.3448 141.341 185.639 -170.294 -342.79 -29.1714 -98.8312 -353.485 705.163
7217 2 -11.4461 -65.4123 -20.5343 -72.5521 -12.8598 122.26 135.634 -47.4724 63.8404 -98.8051 322.59
4809 2 -9.13937 -65.083 -16.063 2.4918 -132.352 57.2501 184.687 49.5676 23.4887 -86.9463 374.057
18 2 -9.72549 -64.9261 -18.7424 -25.5562 -82.2276 105.69 153.45 -30.43 59.7587 -89.894 334.674
7609 1 -10.1344 -64.5873 -20.2689 34.2633 76.747 -211.462 -296.504 129.01 -152.645 -350.022 675.428
4723 2 -10.4243 -63.0766 -20.3601 -15.7451 -55.6629 105.555 116.97 -48.4559 81.6714 -94.9145 298.747
14983 2 -12.3536 -62.3183 -16.3653 -30.0687 -49.6547 113.067 118.148 43.0666 -10.9849 -103.76 267.353
7376 2 -12.2537 -62.0869 -19.0134 -5.71515 -40.3502 84.0141 99.3741 6.24431 45.7441 -104.813 219.952
4813 1 -10.8787 -61.7021 -19.8143 -74.2454 169.071 -226.679 -250.514 73.1997 -114.464 -335.269 602.646
366 2 -9.85898 -61.2485 -18.6949 57.7995 -148.064 90.805 143.061 -31.093 42.7768 -99.0269 346.486
12424 1 -7.27444 -61.9213 -15.69 -277.707 378.609 -68.731 -159.85 -45.7888 24.7205 -356.693 649.651
7420 1 -11.5991 -62.3068 -14.9151 70.8455 132.665 -231.524 -269.433 -30.4842 51.0647 -333.63 585.094
14888 2 -8.06782 -63.0918 -14.8578 102.849 -170.835 38.255 123.333 56.1357 -36.4309 -88.2185 347.081
15079 2 -8.0421 -61.035 -16.7974 114.722 -183.25 75.1657 97.4742 2.2866 0.429141 -93.6241 327.239
7204 1 -12.0825 -66.9007 -20.7716 198.9 30.9674 -270.452 -274.475 116.709 -115.526 -329.176 690.35
7581 2 -3.59184 -66.7343 -19.4687 132.977 -342.435 8.65198 56.7527 66.0657 38.3368 -74.1949 457.748
12472 1 -4.29052 -66.4634 -18.0544 -252.358 655.36 -53.1217 -156.885 -58.2122 -90.0038 -393.692 889.439
12234 2 -2.94769 -66.0826 -17.1545 112.193 -300.228 10.6216 -25.3788 19.6729 14.9392 -74.2656 377.201
9794 1 -1.40806 -65.6017 -16.8324 -167.34 483.127 -49.4333 130.265 6.0265 -17.5366 -375.887 642.069
7208 2 -1.30925 -65.2784 -15.3023 56.0794 -227.79 66.4643 -61.2251 -13.5055 0.742891 -77.4627 308.92
4836 2 -5.22683 -65.1429 -17.6684 126.837 -282.781 59.736 68.0804 -26.8937 81.7475 -74.7425 425.355
2528 2 -5.02324 -64.3103 -15.0599 116.234 -307.957 41.469 45.141 -24.5469 6.84567 -77.6859 402.336
5367 1 -5.08916 -63.9278 -16.6244 -262.922 544.516 -101.852 -75.8775 79.0714 -85.2866 -376.306 778.264
9597 2 -3.81932 -62.9642 -17.1013 93.4309 -222.722 59.4289 6.51737 -18.2667 35.2522 -83.4729 308.571
14791 2 -6.33014 -62.8427 -16.6271 166.894 -231.529 48.2993 59.1093 -20.9866 6.47128 -83.2889 370.788
15356 2 -1.58598 -61.9715 -17.8466 111.482 -150.578 36.352 -21.2356 2.35871 43.3934 -84.6056 248.294
7658 1 -2.99021 -61.6445 -17.1995 -153.046 320.02 -126.542 -12.1816 -13.2149 -57.0174 -363.857 471.887
14897 2 -2.77028 -61.2654 -15.68 79.9235 -180.522 45.6974 28.3648 -2.22512 22.6555 -86.3626 253.096
12653 2 -5.17409 -62.6515 -20.8344 82.3635 -113.938 -11.5439 20.9006 17.3764 99.0422 -88.5744 246.096
1962 2 -2.76921 -63.8146 34.8167 128.599 -210.046 -15.6808 12.0048 46.8344 77.9557 -88.1583 334.487
14886 2 2.58945 -66.8426 -16.8766 71.7347 -290.558 47.0045 -2.14616 -27.3428 1.08078 -83.1484 353.791
15074 1 1.01946 -66.0903 -20.2644 -227.936 394.058 2.5007 154.428 -35.4021 -79.9075 -361.752 625.386
10271 2 4.09947 -65.9325 -18.5116 77.8111 -226.845 7.83119 -38.3624 -6.9494 29.7024 -90.8196 289.136
12772 1 2.73143 -65.5237 -17.7502 -184.208 396.399 -56.6525 57.7289 29.9082 -85.6319 -358.406 560.352
14777 2 1.67072 -65.4235 -18.9278 112.859 -197.601 9.27403 -45.377 -1.57408 40.6501 -88.3391 293.425
5156 2 -0.908701 -64.3133 -17.695 113.592 -233.743 15.5968 -39.1137 3.96883 32.4063 -84.0393 322.483
17493 2 2.5889 -64.3618 -16.689 75.4626 -189.848 50.4872 -52.5572 -25.58 40.9864 -86.834 282.27
12709 1 2.64634 -63.1934 -15.5358 -133.031 369.36 -137.307 121.792 55.2815 -55.5695 -364.323 563.467
7514 1 -0.426344 -62.8909 -18.2885 -268.141 344.486 -63.6875 48.2225 4.24608 -96.611 -365.433 571.744
9955 2 -0.517672 -63.0401 -19.913 150.173 -161.492 15.0676 -15.1971 12.8856 48.2226 -86.0738 285.391
10086 2 0.951807 -62.1915 -17.9857 97.7809 -128.027 22.9651 -21.9634 -13.2035 32.8323 -85.9674 211.888
12267 1 4.40553 -62.5014 -20.0915 -135.415 177.727 33.9683 136.361 10.7636 -9.03477 -346.857 360.67
7949 2 3.12005 -62.3869 -19.1436 47.7805 -102.874 19.6118 -51.4751 -28.5081 19.7491 -91.2828 175.51
17819 2 3.0528 -61.9852 -16.509 29.9856 -114.981 58.2709 -67.024 -27.707 33.9628 -87.3782 212.499
7383 1 2.43641 -61.5665 -17.9195 -97.4637 175.264 -83.9689 100.44 73.4094 -38.4304 -358.017 348.919
10212 2 1.28212 -62.7584 -14.9076 72.0144 -179.383 61.4173 -38.6076 -29.9194 17.9837 -83.8408 262.252
15358 2 -0.298167 -65.3099 -20.8461 121.36 -254.078 -20.928 -70.8889 34.7719 43.3168 -86.4988 363.471
12491 2 4.74036 -63.945 -20.7497 74.8247 -117.685 -40.0468 -46.3031 8.38604 28.84 -94.4436 193.08
15062 1 5.98516 -66.8714 -15.3162 -49.3337 421.378 -163.351 201.363 -7.27663 44.8983 -375.139 645.047
12650 1 5.2117 -66.6225 -19.3699 -147.469 328.346 0.366236 117.366 -11.777 -149.473 -355.957 535.424
14981 2 6.95724 -66.3415 -16.5247 45.9663 -190.359 55.2837 -89.1448 13.5095 2.20148 -83.9666 287.299
14891 2 6.57479 -65.8882 -19.0519 69.492 -176.982 -2.63425 -61.3833 8.93006 42.6311 -91.0431 255.283
10181 2 9.0325 -65.5876 -18.2357 137.07 -184.687 -13.1747 -104.009 31.6501 59.4588 -88.2385 351.886
5257 1 7.51456 -65.4375 -17.7704 -209.794 389.986 -38.0762 161.412 -21.5913 -62.9186 -357.308 614.546
22634 1 9.98657 -64.7583 -19.1632 -244.66 334.342 7.56 222.399 -104.768 -101.361 -356.093 681.879
10256 2 8.90587 -64.1573 -20.2855 100.944 -158.642 -1.53654 -102.08 29.8266 20.8123 -90.1687 294.132
10159 2 7.20288 -63.9153 -17.5236 78.319 -220.396 51.1616 -64.0799 19.9424 33.864 -90.3378 314.337
17477 2 10.6735 -63.7764 -18.0927 100.848 -171.794 26.2935 -69.2676 68.5206 42.2319 -88.668 305.606
20060 2 10.0793 -63.2108 -15.634 110.259 -235.813 80.8447 -67.5949 42.0065 71.6121 -86.3058 380.575
12603 1 6.82671 -62.3777 -17.8548 -116.097 323.886 -128.73 153.917 -26.3826 -34.7719 -356.78 525.442
7932 2 5.57621 -62.2762 -18.9138 53.31 -124.956 22.6866 -89.0731 -10.9878 -0.728929 -92.575 226.767
27872 2 6.56927 -61.6236 -16.5008 53.2323 -160.063 66.3474 -94.36 18.195 33.4627 -85.2141 282.007
17695 2 8.02183 -61.6591 -18.6778 72.1701 -115.198 27.2942 -51.33 27.0934 -21.351 -86.8953 200.465
12722 1 8.19057 -61.1832 -20.2072 -135.164 135.315 88.0322 75.0597 -33.1917 74.9165 -356.894 315.673
7576 1 6.71676 -61.5427 -14.8791 -156.507 374.406 -86.9897 200.157 -90.2098 -79.2887 -367.833 642.85
9996 2 9.75022 -61.0458 -20.5825 107.549 -96.2005 -45.6279 -26.2457 43.0738 -26.2359 -86.1479 208.482
8070 2 13.1768 -66.6185 -19.8656 0.325394 -106.195 52.6666 -75.8331 25.5172 41.9524 -87.6992 210.112
19971 1 12.7375 -66.3959 -16.1545 -13.4512 248.39 -133.325 235.825 -184.547 -79.8464 -355.249 634.396
27785 2 14.3499 -66.3752 -16.3753 11.6317 -100.852 53.0056 -120.993 84.4519 25.9177 -92.3193 293.85
20351 2 12.707 -67.0956 -14.6848 29.0578 -140.041 49.4743 -118.931 30.9153 18.0945 -87.8844 280.619
12382 2 16.5494 -66.0749 -15.1421 27.062 -109.567 54.9134 -94.1629 23.422 26.098 -95.263 231.382
27585 2 16.5237 -65.4899 -17.6724 46.9412 -164.838 100 -100.668 -8.85876 -4.66732 -88.4656 299.342
25165 1 15.6438 -65.4118 -16.2966 -62.1148 235.008 -114.762 235.212 -75.5037 -40.2213 -350.635 542.795
20092 1 12.7981 -65.2734 -20.6564 -12.7951 253.979 -128.022 82.9967 9.51564 -67.8028 -360.538 387.187
7530 2 11.2905 -65.0763 -20.0741 56.8865 -140.639 24.1061 -79.5737 32.2345 46.3059 -88.7815 249.322
27552 2 12.0296 -64.917 -16.1476 24.7805 -153.945 59.2025 -108.846 67.0252 54.2213 -90.224 311.639
17576 2 15.1366 -64.036 -15.7428 1.39769 -89.4435 40.8896 -116.653 58.0107 46.4212 -92.2356 266.052
19788 2 13.6001 -63.8472 -20.3897 5.61188 -100.745 63.1777 -38.0966 -28.7244 10.301 -86.2917 167.021
20139 1 11.2598 -63.6121 -16.617 -132.707 352.698 -124.988 142.663 -106.294 -128.412 -357.051 613.477
29788 1 15.0227 -62.5544 -15.066 28.4071 141.172 -78.9068 193.453 -133.934 -100.894 -350.354 482.659
15203 2 12.3376 -62.4013 -16.8335 -10.3865 -108.882 73.349 -44.6612 49.5555 20.9322 -89.3986 199.063
12662 1 13.7419 -62.2209 -20.368 28.1701 158.533 -107.619 113.762 91.3162 5.90565 -362.777 342.171
5095 2 13.9926 -61.7485 -18.8779 -60.0199 -80.2047 84.9603 -65.5801 -13.3087 -12.8589 -86.8152 195.66