ITEM: TIMESTEP
200000
ITEM: NUMBER OF ATOMS
29952
ITEM: BOX BOUNDS pp pp pp
-2.5112174984375557e+01 3.5097469333487673e+01
-6.6638436613735053e+01 7.6623730955735056e+01
-2.0951778812106220e+01 3.4819631958248870e+01
ITEM: ATOMS id type x y z v_StrAtomXX v_StrAtomYY v_StrAtomZZ v_StrAtomXY v_StrAtomXZ v_StrAtomYZ c_PEAtom v_VMS
2510 1 -20.6237 -63.5492 -17.4173 128.619 174.459 -102.113 -169.339 31.2883 34.1053 -369.434 397.956
5204 2 -21.2143 -62.6581 -16.2749 -58.9365 -76.1802 47.5516 39.2648 -33.7464 -20.4157 -81.9641 150.882
27586 2 -20.7524 -63.0189 -18.8881 -68.03 -40.6809 -10.457 70.4706 -4.67136 -40.162 -83.3949 149.301
27287 2 -21.5064 -64.9682 -17.4023 -109.15 -46.547 50.2357 95.2326 -21.3983 -1.71239 -83.5857 218.941
27575 2 -23.5344 -60.7812 -19.6815 -110.255 30.0373 -11.4514 -33.1862 -27.2405 -32.5995 -80.3651 155.888
2168 2 -24.1486 -65.1736 -16.7765 -84.6086 8.74665 14.3463 38.0634 -57.363 11.7091 -86.9941 154.592
29798 1 -22.9009 -65.7751 -17.5776 211.18 -51.3073 -62.8122 -120.384 78.9434 16.9062 -363.582 367.535
5106 2 -24.4202 -63.5915 -20.1851 -125.122 38.9849 -4.02399 16.3362 -37.4528 -65.1011 -81.9963 198.61
10103 2 -23.4275 -65.7855 -19.1479 -122.644 20.0669 15.4717 50.6137 -63.4729 -16.404 -86.4399 200.775
2666 1 -24.2016 -65.2062 -20.4383 251.625 -41.9723 -22.4085 -94.0187 98.2365 44.7282 -366.932 377.24
7597 1 -23.7128 -62.1745 -20.5882 256.709 -62.4908 19.917 37.2541 15.8203 138.995 -370.133 381.115
12578 1 -20.6824 -63.2332 -20.5259 146.34 -27.6413 64.7316 -113.477 28.3399 65.2085 -367.231 276.638
7674 2 -20.0072 -64.7068 -20.6355 -68.771 11.0418 -35.179 47.9513 -26.6471 13.2929 -82.7695 119.899
9808 1 -19.2513 -66.2141 -20.76 93.8849 -7.49927 92.5435 -94.0419 30.0621 6.11738 -373.839 198.745
7116 2 -25.0512 -60.9709 -14.8318 -121.108 45.6448 -1.59226 -0.606699 -2.51341 -34.1346 -82.9883 160.238
2228 2 -22.2531 -62.8649 -20.9204 -109.539 22.8292 -31.5017 20.1573 -6.13818 -56.3919 -84.5135 155.415
2622 2 -18.9998 -63.3909 -17.1949 -19.1648 -101.018 5.85983 103.132 -27.3302 -12.191 -81.3004 209.689
2623 2 -16.687 -63.2171 -18.3566 -30.3476 -50.2152 -11.3099 62.6401 -11.6751 1.46545 -82.5117 115.421
7228 1 -17.6746 -62.4933 -17.3605 23.1762 140.205 -12.685 -182.954 11.0973 57.6447 -369.984 360.462
27289 1 -15.2741 -63.7898 -18.9594 126.668 49.7522 14.8444 -81.9737 7.35305 -38.9241 -370.647 186.242
12430 2 -15.5433 -65.4421 -19.2696 -65.8639 9.03301 -27.0902 57.781 -12.0304 34.3555 -77.5663 134.907
12021 2 -17.0696 -62.5536 -15.8378 -22.5724 -84.9724 15.7983 80.866 -18.9674 -37.8723 -82.6385 180.999
7580 2 -17.7781 -60.9168 -17.9783 -46.3853 -36.9113 -12.6192 72.4805 9.3664 -40.5651 -83.4094 147.885
9900 2 -14.1163 -63.1895 -17.9282 -52.1818 -48.2845 11.6903 19.2601 18.4539 1.85858 -84.1999 77.4001
17109 2 -14.9689 -62.9127 -20.2826 -90.5266 -25.7371 32.0253 15.8598 -2.40553 14.2058 -84.6415 112.49
12032 2 -17.817 -66.3849 -19.9775 -28.873 -7.11137 -65.8115 53.8781 -15.8282 -3.43548 -77.6991 110.17
5035 2 -13.5686 -66.016 -14.7877 -32.5462 3.0584 -68.6882 17.3431 -54.3701 -30.519 -79.0693 128.163
12289 1 -13.15 -61.9336 -17.6753 71.3415 88.4872 -43.7375 -19.4828 -76.5047 -7.66217 -360.805 185.429
14983 2 -12.2347 -61.9252 -16.3692 -55.368 -19.6284 13.0389 10.8037 35.5841 -12.5167 -88.3011 90.1711
18 2 -9.93194 -65.329 -18.6583 -118.832 -13.1064 33.8971 -30.6649 14.4369 6.57641 -80.3831 148.097
366 2 -9.73706 -61.0915 -19.2346 -51.1757 -31.2894 -11.2501 41.4349 -17.3779 -11.0848 -83.5897 87.2965
7376 2 -12.287 -61.709 -19.0537 -42.929 -46.5981 23.0385 16.9334 24.2584 14.5399 -86.2306 88.6965
4809 2 -9.34109 -64.5402 -16.1162 -77.2151 22.6941 -43.2045 3.78891 10.6839 -10.2421 -84.9435 91.8738
4813 1 -10.956 -61.8117 -20.1101 131.574 36.5992 -31.5703 -63.6754 -25.3804 -22.1113 -368.201 188.956
7609 1 -10.2507 -65.0729 -20.2569 181.15 35.4534 -34.8575 48.6525 -36.0925 -55.31 -375.1 237.911
87 1 -9.98499 -65.6426 -17.107 260.283 -14.6449 -9.95602 43.8096 -20.1049 2.11458 -369.453 285.135
4723 2 -10.7417 -63.4442 -20.3479 -88.8205 -6.1643 8.93213 -18.6758 13.3234 23.6454 -81.261 107.536
4727 2 -11.4964 -65.9566 -16.4553 -108.187 -10.356 -26.6779 -19.5896 -8.32341 -8.13204 -82.1918 98.9852
12424 1 -7.51931 -61.3937 -15.8875 -44.4806 -1.0845 126.353 25.1556 50.5653 28.7235 -363.287 188.939
14888 2 -8.15397 -62.5763 -15.0243 -5.41519 19.837 -85.8346 3.36147 -14.0342 -27.1924 -86.9196 109.448
15079 2 -8.42625 -60.6259 -17.039 -7.88004 -19.7473 -1.92163 -2.89568 -14.3205 -24.78 -85.1622 52.2454
7420 1 -11.6308 -61.554 -14.9009 130.16 -24.5277 22.0478 -28.254 -2.10539 30.1504 -354.448 155.01
12195 1 -9.25824 -63.7057 -14.749 97.0486 -83.0106 135.124 21.3776 9.38636 49.1181 -360.166 222.71
7217 2 -11.0473 -66.4916 -20.7404 -95.3759 -21.1646 8.40839 -5.85722 49.0304 30.6562 -79.6342 136.787
14791 2 -6.43721 -62.2603 -16.7145 15.6881 -56.1082 -54.589 -14.231 -49.4452 -33.23 -83.5457 127.682
4836 2 -5.14975 -64.8449 -17.7103 -36.9385 -1.23935 -8.48455 2.95701 -41.341 23.8107 -79.7482 89.009
7658 1 -3.20935 -61.0679 -17.2292 122.93 -72.1711 33.8412 66.4229 76.4517 51.4772 -362.751 259.5
5367 1 -5.29434 -63.3815 -16.7915 28.9969 23.3796 93.0219 38.5595 120.616 13.6836 -368.861 230.558
9597 2 -4.06609 -62.4196 -17.3223 -58.3958 0.483362 -27.4376 -31.4781 -39.6947 -15.8097 -84.9593 105.128
2528 2 -5.21193 -63.9642 -15.2993 -8.18787 -19.0366 -63.7621 -12.4268 -60.7248 -30.7249 -84.1171 130.235
9794 1 -1.55949 -65.3069 -16.7766 27.4582 -16.4827 66.5592 91.2342 49.76 58.7482 -364.347 218.932
14897 2 -3.01791 -60.6779 -15.7159 -56.0402 31.8559 -70.3788 -19.799 -49.1249 13.0449 -86.7364 134.603
7208 2 -1.60671 -64.9461 -15.2085 -15.4476 -0.510605 -41.0986 -57.1355 -32.7262 -48.0812 -85.6456 145.623
12234 2 -3.01318 -65.8623 -17.3384 -21.4233 1.54575 -28.8906 -9.80734 -5.62382 -15.709 -81.7994 43.343
15356 2 -1.72566 -61.5546 -17.7052 -51.2793 31.957 -23.8428 -50.5344 -37.7869 -20.8328 -86.1396 136.543
12472 1 -4.3921 -66.2531 -18.1112 99.8967 -24.9765 16.5531 -43.2276 17.5307 -10.5851 -376.531 137.826
1962 2 -2.70292 -63.5334 -20.8974 -33.5226 15.6732 -47.7689 -26.0989 11.7916 14.0483 -87.915 79.8541
5156 2 -0.934828 -63.9925 -17.5079 -14.7553 -4.34757 -49.0119 -52.9811 -27.5228 -15.8399 -87.3924 114.388
9955 2 -0.552542 -62.6989 -19.7619 -24.4747 33.1318 -13.6176 -42.7583 10.3025 -6.37497 -88.3611 93.4671
7514 1 -0.531283 -62.5076 -18.1873 40.0871 -41.3234 41.9609 106.987 40.6045 46.8721 -360.269 229.477
10086 2 0.832744 -61.6698 -17.8578 -30.6433 59.3134 -48.503 -40.1387 -22.0967 -41.1801 -87.2069 146.299
7383 1 2.28755 -60.9697 -17.9921 117.217 -210.769 87.3797 87.6075 12.916 88.7269 -360.359 381.867
17819 2 2.87973 -61.7235 -16.6355 -38.0489 73.8524 -48.6507 -38.2165 20.2551 -36.8192 -86.5352 153.297
12709 1 2.61612 -63.1848 -15.8402 33.09 -40.66 42.5855 95.7913 -27.7906 52.5543 -356.861 210.619
7949 2 3.02536 -61.6258 -19.2442 -44.8811 87.1888 -40.4787 -52.8967 5.38593 -44.6779 -90.7544 177.059
17493 2 2.76651 -64.4612 -16.8556 -36.7224 7.09035 -25.1368 -42.5092 9.47073 -20.5519 -93.2203 92.2144
14777 2 1.8138 -65.8219 -18.8781 -48.4973 8.27802 14.7302 -29.6756 24.5068 -15.709 -93.0942 93.8903
12772 1 3.00544 -65.8371 -17.7324 112.618 0.657243 -21.8279 49.4648 -47.1375 64.6791 -344.583 205.218
15074 1 0.961875 -66.1785 -20.228 85.1811 -67.7722 26.3067 64.7202 -63.9987 9.13855 -351.88 207.268
10271 2 4.46477 -65.8929 -18.4617 -82.2426 7.58672 10.5876 -0.580944 21.1985 -32.7716 -95.4358 113.662
15358 2 -0.334696 -65.1078 -20.4917 -6.39728 9.63519 -34.8133 -55.0073 29.9351 -11.013 -89.6789 116.832
12267 1 4.29984 -61.8725 -20.1838 50.5529 -137.901 129.355 87.5263 -51.4747 93.995 -349.863 337.657
10212 2 1.18153 -62.8493 -15.0415 -13.1866 8.04864 -37.4224 -59.9815 -7.99422 -27.24 -86.0027 121.507
12491 2 4.53605 -63.3379 -20.73 -38.7788 48.3901 -75.5634 5.13383 34.1161 -29.4877 -93.9271 135.416
7385 2 3.79468 -63.3246 -14.7477 -34.6156 7.4637 -15.4587 -19.0522 14.9761 -17.33 -89.2374 63.2008
9909 2 -0.704615 -66.6669 -16.954 -12.8025 11.1943 -23.6931 -25.7803 -23.9706 -30.6766 -85.8656 86.5829
7932 2 5.53342 -61.7217 -19.0317 -28.0812 26.5296 -39.0384 -35.3212 23.0213 -40.6163 -91.4432 118.248
12603 1 6.72573 -61.8071 -17.9023 87.6501 18.0665 -9.87651 35.1765 -41.4654 62.2815 -354.837 167.554
5257 1 7.80437 -64.8087 -17.6352 -11.6153 -2.03321 76.1159 -70.0198 2.32791 76.4531 -357.389 198.009
10159 2 7.24152 -63.3186 -17.6796 -23.9099 -33.3885 -8.60295 19.7416 15.2687 -32.1186 -91.6831 73.7064
10181 2 9.26384 -64.889 -18.3239 58.5792 -21.7971 -68.5401 -3.74888 -8.4458 -15.0198 -84.9712 115.478
14981 2 7.50458 -65.6774 -16.3002 -34.1009 40.6415 -34.9174 20.1595 21.1993 -43.4777 -88.8754 117.841
27872 2 6.3546 -61.1821 -16.5249 -65.9302 9.75885 -7.89423 -39.9761 37.7745 -9.89646 -87.6188 118.63
22634 1 10.1378 -64.0371 -19.4067 -97.3673 112.056 110.324 70.4457 -11.0032 10.2935 -363.73 243.037
20060 2 10.0483 -62.3894 -15.8521 19.2676 -94.8392 -17.4188 11.0007 -2.7849 25.9267 -87.1335 112.174
17695 2 7.8747 -60.8487 -18.6551 -19.5749 -20.6379 -26.9605 -6.04278 9.11505 -37.1718 -87.1126 67.4674
14891 2 6.93531 -65.5489 -18.7378 -29.2294 31.7641 -28.024 23.1616 0.543916 -27.9201 -89.556 87.1608
10256 2 9.05152 -63.4994 -20.4574 24.5883 -50.0421 -44.4691 -29.5987 0.445538 -7.51976 -86.986 89.3494
15062 1 6.54072 -66.3444 -15.1229 115.642 -99.2288 52.9311 24.044 -95.5254 38.0087 -350.843 264.709
12563 2 5.51648 -65.9049 -20.763 -55.0874 29.0326 -8.19802 -12.191 -4.54465 16.5214 -90.4202 81.5913
7576 1 6.53189 -60.7941 -14.929 130.771 -65.6559 80.7435 120.261 -100.974 -18.3087 -362.404 325.945
17477 2 10.7211 -62.9268 -18.3834 26.275 -67.5632 -49.6369 -12.1553 10.9444 -10.1482 -87.2914 92.5005
12650 1 5.72053 -66.4174 -19.2871 141.202 -86.0729 -3.97248 33.1108 -20.5244 19.9916 -352.361 213.276
20139 1 11.2573 -62.8025 -16.8196 -18.4947 126.691 58.872 29.8732 -36.9984 -26.6324 -360.739 157.301
7530 2 11.3953 -64.5993 -20.214 -5.72867 -39.564 -35.3555 -39.7718 -9.85056 16.3639 -83.1631 82.8249
15203 2 12.3571 -61.5964 -16.8459 -75.2478 -34.2718 -15.9649 2.44101 23.8043 4.79685 -86.2055 67.4623
27552 2 11.8494 -64.279 -16.5168 3.6422 -34.7364 -47.7494 -52.5927 27.1944 -6.20405 -85.3507 113.021
5095 2 13.8428 -60.923 -18.9658 -84.7782 -20.0667 -18.1726 -22.4649 -16.0208 -37.308 -81.2223 103.795
27785 2 14.2611 -65.1976 -16.923 -11.6002 -96.357 -48.7209 -49.5182 28.2866 -33.7418 -84.6413 136.336
24982 2 14.6004 -60.6186 -16.4311 -66.2952 1.33545 -22.4888 -15.5014 57.7856 13.7264 -79.3567 121.794
19971 1 12.7708 -65.624 -16.5401 46.6543 31.5478 79.8822 75.7181 -75.4315 47.4073 -367.477 206.993
25165 1 15.7244 -64.5693 -16.6494 -16.4161 170.792 61.0155 110.494 12.7665 -6.54165 -368.466 252.568
17576 2 15.305 -63.0918 -15.9347 -17.5246 -34.9616 -54.6827 -56.4193 37.8823 25.782 -82.2946 129.945
29788 1 15.1365 -61.6015 -15.2197 39.9992 11.0468 119.838 62.4527 -133.354 -97.3985 -372.878 320.989
27585 2 16.5823 -64.7773 -18.0238 17.5495 -127.061 -3.81468 -51.8769 -47.0016 7.32138 -81.1678 182.047
12662 1 13.5165 -61.3391 -20.5413 115.989 12.8495 87.6467 44.3311 105.959 37.8753 -371.19 228.908
12382 2 16.473 -65.3807 -15.4914 2.33149 -86.038 -25.072 -29.6146 -14.2045 -6.16477 -84.4513 97.4109
19788 2 13.4097 -63.0318 -20.5682 -38.91 -31.3423 -26.6694 -41.7431 -45.1327 -7.21978 -82.2508 107.746
8070 2 13.1653 -66.1738 -19.9725 -31.3445 -5.52137 -30.7802 -39.3329 -7.19371 11.8478 -79.9803 76.617
20351 2 12.8947 -66.2438 -14.9804 -21.7763 -25.0769 -30.0221 -13.7501 22.9847 -39.6029 -83.5339 83.12
20092 1 12.893 -64.6819 -20.775 68.6082 96.0006 28.4508 74.3092 55.3084 -18.8802 -371.687 173.997
12580 1 13.367 -60.4858 -17.4908 217.348 -59.098 -8.58428 -10.2174 -68.3538 38.6149 -369.874 289.505
12546 2 12.1178 -60.5356 -20.6707 -38.0969 -24.9796 -67.8825 -10.0763 -2.98636 -29.5792 -84.2019 66.3784
20059 2 12.2632 -66.6556 -17.6805 -37.6328 23.6242 -54.8408 -20.8846 26.9215 4.40585 -80.8192 92.9715
2582 1 17.6917 -65.2519 -19.1688 -4.35358 238.374 -6.97828 29.1583 77.221 15.5517 -370.618 284.124
2496 2 20.6951 -63.987 -16.9646 2.00324 -122.231 -13.2194 74.2908 5.56232 29.4321 -83.5759 181.724
22635 1 21.9644 -62.8594 -16.6935 173.102 52.9663 58.5746 -138.697 24.2248 -26.6112 -363.448 274.566
29676 2 21.7663 -61.2294 -16.3879 -86.1083 30.8391 -47.762 45.2589 -36.0112 8.74961 -80.1682 144.665
27758 1 20.4617 -65.5441 -17.5451 -13.9623 223.897 -1.51942 -121.88 -12.5429 -28.9719 -365.812 318.318
19 2 19.0741 -65.5312 -18.391 17.0026 -131.168 -16.4849 25.4168 -3.63217 4.81834 -83.3275 141.991
9801 2 21.7614 -65.78 -18.4792 -28.2657 -81.0198 11.5053 37.3596 -7.94983 42.4257 -86.3204 127.434
2503 2 18.105 -64.0717 -20.3144 -15.9585 -91.5969 -4.63267 -7.72778 -31.0216 -53.9839 -80.767 136.07
27582 2 22.6932 -63.7246 -15.4271 -90.5607 -54.8252 21.6467 51.7789 -19.0437 -6.29221 -88.1679 138.23
27463 2 22.9569 -62.8282 -17.983 -122.104 7.84272 -66.6073 61.9267 -6.87207 31.8691 -87.9373 165.674
4915 2 17.4299 -66.6246 -19.9855 -41.2888 -58.9703 -42.8162 -3.65365 -30.799 18.7551 -82.5909 65.0309
2393 2 23.0678 -65.4814 -20.7409 -58.6377 -53.7524 48.594 -4.4167 26.0188 30.2869 -88.6091 125.857
29773 1 23.1775 -65.8652 -19.1753 120.637 80.622 -22.5771 7.90423 10.0633 -118.803 -358.322 243.34
27732 2 24.2393 -64.8192 -18.6017 -91.1511 -12.3604 2.6101 5.91621 2.45295 60.1621 -89.4998 136.357
20441 2 25.3579 -62.5517 -17.3974 -102.955 38.4909 -23.8005 34.174 11.4727 9.72281 -88.4119 138.774
29764 1 25.4779 -61.5211 -16.1202 203.082 -153.302 105.536 -91.2885 -72.2321 12.2622 -359.628 377.975
2497 1 24.4269 -63.2108 -18.4852 219.868 -46.2646 -5.83676 -71.6623 34.3457 -89.8584 -357.297 323.838
27245 2 25.2254 -62.7713 -19.7995 -106.56 52.6916 16.7521 39.7906 -28.0306 25.421 -86.9282 173.133
17400 2 28.0829 -62.801 -20.0711 -109.156 44.3329 -33.9106 42.9361 18.5685 9.85021 -85.7312 156.612
25174 2 26.5613 -65.1923 -15.6917 -68.9168 16.5684 4.77572 -43.3837 48.0435 8.86417 -86.4953 138.728
25041 2 26.5481 -64.8316 -20.3472 -93.3954 12.1837 -18.8038 28.0476 8.58677 20.2337 -88.3916 112.45
22573 1 26.6225 -63.2065 -20.5986 211.587 -91.755 42.4028 -96.4757 4.12235 -19.0713 -360.023 313.662
25087 2 25.6897 -62.6299 -15.0699 -65.263 28.1285 -38.3194 14.4323 45.8885 -44.9673 -86.6879 141.209
2403 1 26.6966 -66.3588 -19.6996 147.886 -47.2465 -14.2269 38.6196 -79.301 9.5913 -360.796 237.361
407 2 24.1133 -60.578 -16.3332 -142.629 85.2521 -59.2747 63.2936 6.78024 13.872 -87.2857 229.382
25172 2 28.2004 -66.4757 -20.1679 -55.2009 29.4323 -7.33733 -36.9647 41.8044 -12.2816 -84.18 123.278
29864 2 26.6441 -66.4278 -18.0598 -86.0679 23.4532 26.6586 -46.3889 63.7413 -3.91722 -85.9963 176.201
29786 1 26.9874 -66.5695 -16.4444 158.737 -79.9151 -34.3448 100.632 -110.405 -32.5664 -363.104 343.927
4917 2 34.9049 -66.5051 -14.7879 -109.825 77.0921 27.8124 0.499659 -7.22034 8.04441 -90.5193 168.839
5283 1 34.8157 -65.2062 -15.7417 198.357 -78.2187 -25.902 -20.1654 52.5968 -51.67 -356.652 286.862
2818 2 34.8037 -63.7367 -15.0466 -93.3289 7.74832 9.72511 17.0958 -13.981 35.1317 -88.5437 124.845
4803 1 29.6662 -62.8107 -20.4263 180.368 -79.2171 66.3427 -59.5218 -72.418 19.5586 -370.851 279.814
2129 2 30.3337 -61.7178 -19.3573 -105.875 39.2988 3.06759 11.005 48.0475 -2.41205 -81.7603 156.316
2518 2 30.7167 -61.4407 -17.0089 -110.217 62.6964 -5.76159 -39.3634 45.7375 -48.0282 -82.7609 201.476
2314 2 31.5141 -64.0557 -17.1696 -81.6263 35.806 -18.3305 -37.7911 45.9931 0.256996 -83.664 144.895
4542 2 32.9454 -62.2561 -15.8507 -97.5254 40.0048 -20.1825 -34.7613 28.7496 -30.1834 -84.7666 151.978
205 1 31.4798 -62.7062 -16.2618 182.939 -91.7915 30.9378 104.708 -79.8965 60.9886 -366.625 346.443
7118 1 32.0874 -65.6175 -17.3868 147.806 -48.6201 5.76807 12.8734 -56.9172 -52.9138 -362.699 222.426
7207 2 33.4182 -65.5567 -16.5129 -108.3 28.6119 -4.82088 -4.79735 -7.4179 26.8292 -89.5295 132.961
2311 2 32.4245 -65.9482 -18.9921 -60.5864 -17.8882 9.00951 -4.50599 20.4478 16.6446 -83.0004 76.4296
431 2 29.755 -64.452 -20.7655 -76.6639 53.7086 -68.7016 -13.1591 54.1652 -17.2057 -80.3476 161.961
36 2 34.634 -66.108 -20.5119 -82.0301 -6.99367 17.6719 44.8052 -39.7685 -7.33313 -82.3001 137.906
14896 1 34.2227 -62.2222 -14.8112 203.421 -45.7295 -7.14585 -10.651 -17.1354 5.09051 -361.944 235.054
109 1 30.4914 -60.427 -18.3252 216.934 -94.2178 27.9961 1.5213 -49.2763 13.0467 -366.605 285.529
113 2 -23.2984 -59.093 -15.2355 -134.283 66.876 -16.0949 -2.30262 -20.6763 -53.8281 -77.3549 201.618
10219 2 -21.9103 -58.7876 -19.9423 -33.9779 14.3703 -67.2365 -3.58222 -24.6761 -3.69624 -79.2238 83.4139
4802 1 -23.3851 -59.1433 -19.3814 162.708 -27.8693 7.5492 66.008 55.0266 -1.51574 -377.236 230.187
17412 2 -23.5074 -58.5821 -17.772 -116.64 8.68756 17.133 -16.7124 -50.9239 6.06662 -77.7089 159.89
27469 1 -23.5765 -57.8246 -16.2363 207.655 -75.6525 42.4239 10.9033 42.0913 27.96 -377.639 262.241
12 2 -22.4502 -56.6182 -16.0175 -58.9995 7.35495 -29.7905 16.7944 -8.58765 8.06771 -78.8357 67.6801
12409 1 -21.9076 -55.1074 -15.7128 26.6125 75.175 27.6785 -25.7341 -3.55892 58.3346 -369.684 120.587
2569 1 -20.3237 -58.5566 -20.3111 56.6076 -17.0349 132.523 -2.4106 -9.47032 29.0722 -373.61 139.997
10366 2 -20.01 -56.9721 -20.6298 -54.3302 31.8786 -53.5255 -23.8434 7.69678 -28.1488 -80.8503 107.812
201 2 -24.5348 -58.4012 -20.2546 -88.131 8.04687 10.4783 -37.7565 -14.7768 -13.5598 -80.4379 122.365
7521 2 -19.3625 -59.0762 -19.1488 -15.6339 -44.7389 -54.5164 4.90461 22.973 -2.83681 -80.7588 53.9152
285 2 -24.9933 -57.1759 -15.8455 -75.8341 31.2729 -38.9488 -22.9885 -7.7531 -20.7794 -82.4686 109.283
7509 2 -20.5334 -54.2259 -15.9907 1.2785 -84.5067 6.27531 2.21548 -12.5746 -49.9989 -83.7435 125.704
2877 2 -19.3533 -54.1994 -20.4157 -30.7545 -23.8681 3.93095 -30.0608 21.2762 12.3999 -83.6151 74.4439
10246 2 -13.8921 -60.4731 -17.5303 -35.644 -43.5551 14.5477 15.8828 43.6362 5.69348 -88.1719 97.6998
7406 1 -17.8876 -59.351 -18.5742 76.3953 74.5843 39.3286 -23.9415 -72.0365 39.5516 -367.874 152.612
5271 1 -14.0565 -58.8318 -17.6215 50.0423 82.5664 -29.1386 -29.5806 -101.928 1.99026 -361.514 209.064
20203 2 -16.8541 -58.9603 -19.7564 -65.0226 -53.9697 -12.4731 8.61581 25.0228 -31.938 -86.5633 86.3946
2517 2 -15.1298 -58.2582 -16.6844 -65.074 -33.6462 12.5619 -3.45714 30.6298 5.86134 -85.4643 86.7675
2600 2 -14.4019 -58.6194 -19.1489 -56.0864 -39.3901 29.9408 17.1684 39.096 -14.3634 -86.2726 111.049
5014 2 -14.7686 -54.8501 -19.5095 -68.8892 24.9006 -10.3552 12.5067 22.0292 1.16986 -83.7217 93.0703
9999 1 -16.4841 -54.5359 -15.9291 69.1787 69.1908 -53.8397 50.0409 -3.62561 21.6388 -370.18 155.214
5120 2 -17.4605 -58.4321 -17.3021 -86.1828 -20.1491 1.55018 -10.7043 28.1922 12.459 -81.8749 97.2523
2701 1 -16.54 -57.8098 -16.1324 185.684 14.669 -30.0152 47.9144 -25.71 -27.568 -370.711 223.685
2490 2 -16.5722 -56.1377 -15.9922 -73.8238 17.9609 -0.853991 -46.3257 0.760108 4.00471 -81.0479 116.36
5077 1 -15.4163 -58.6978 -20.3835 186.596 45.8918 -77.0813 -23.8863 -28.8409 45.2108 -360.533 250.124
7520 2 -16.8036 -58.6904 -14.7849 -79.6146 -24.0626 34.4605 5.41725 -24.3239 0.766621 -81.0398 107.828
7389 2 -15.2671 -57.0236 -20.8847 -97.3596 20.3901 8.35148 9.38411 18.5699 -15.0468 -85.4481 120.707
9987 1 -14.3173 -55.613 -20.8774 165.344 -67.8947 3.03302 -32.2469 -73.7971 -38.7335 -367.194 258.546
7478 1 -9.13575 -59.8959 -18.3325 75.0762 76.1043 -48.5725 -66.232 51.2966 22.1577 -364.681 194.792
32 2 -12.6866 -57.9597 -17.5534 -8.15567 -19.1297 9.05784 39.7001 46.3655 -7.02937 -85.6093 109.231
2760 2 -8.09047 -59.0384 -19.2015 -4.29981 -40.7408 -43.8095 35.8825 -70.3455 -7.02791 -84.2154 142.497
9970 2 -10.2826 -58.7577 -18.0267 -71.9649 -17.7732 23.84 53.0116 -15.7244 11.0666 -87.1792 128.31
10157 2 -10.9409 -57.5041 -15.9497 -70.3982 1.39001 10.7462 55.042 -5.66331 8.18412 -90.427 123.688
4993 1 -11.1752 -57.5181 -17.4975 110.961 -32.3226 -14.3842 -112.06 -26.5784 7.01316 -361.323 241.29
14898 2 -10.9601 -56.0584 -18.2871 -44.4795 37.1794 -5.87632 33.8782 23.9244 -16.3478 -84.83 104.729
2707 2 -8.71472 -54.783 -18.0748 -36.7135 -10.5756 20.6474 15.7227 -29.8196 -23.9152 -89.0675 87.1734
12316 1 -10.2191 -54.6423 -18.583 74.0144 -23.1587 1.51561 -9.80101 -9.13142 71.0071 -361.846 152.703
10460 2 -8.13448 -55.85 -15.8439 -52.0267 3.43594 -9.54341 38.9943 -50.0089 -24.8632 -92.0143 128.233
15063 1 -7.50763 -54.9052 -16.975 21.8256 49.372 -37.149 -37.0825 106.274 28.9115 -353.176 215.352
7489 1 -7.94129 -58.6376 -20.7651 -27.4286 61.8712 53.5501 -71.361 46.3119 17.3966 -365.51 172.974
2735 2 -10.9491 -60.0236 -15.0502 -66.9638 25.5243 -11.3642 30.1288 -1.12847 4.99602 -91.6549 96.4624
7388 2 -7.17604 -60.2071 -14.8585 11.2666 23.6307 -57.9401 -17.2111 -28.8463 9.15965 -87.3939 97.1329
7593 2 -7.2362 -57.0811 -20.9143 -13.4747 5.99423 -29.2859 33.8985 -16.4422 7.33816 -86.6528 73.1898
22608 2 -5.06588 -59.7387 -20.1504 -56.6377 2.2862 -38.2281 -6.34231 -3.05778 -5.7916 -87.5742 54.5484
5024 2 -3.56662 -59.7852 -18.2364 -85.6639 39.2011 15.4032 -11.4554 -23.576 -32.9642 -86.592 136.041
10182 2 -6.21673 -55.5961 -17.6593 12.6305 -27.6844 15.7041 4.44707 -67.5821 0.0513915 -89.2388 124.579
12484 1 -4.74607 -56.0641 -17.8291 23.9938 3.67408 -33.6156 13.9895 93.8893 8.9805 -355.336 172.73
17759 2 -4.45488 -57.2648 -18.9042 -37.8256 26.8218 2.60228 -3.67639 -25.123 8.43798 -89.4743 73.1286
10259 2 -3.96344 -54.4309 -17.8551 -10.9105 9.15429 15.8592 2.40839 -46.0295 -8.95178 -93.0934 84.8295
10046 1 -3.90764 -58.7496 -19.4718 110.754 -61.4957 20.5215 -2.73476 19.7961 2.74433 -356.583 153.265
2676 2 -4.09069 -56.8925 -16.5625 -29.7475 13.6692 9.10582 -8.22964 -43.8576 -19.097 -88.6932 93.6774
310 2 -1.75565 -56.1577 -15.71 20.9621 -21.8245 6.60813 20.4825 -17.1215 -27.4912 -91.7666 76.3407
7299 1 -3.14549 -56.9028 -15.2711 24.9953 -18.8266 15.3889 -13.1981 64.4391 46.6836 -355.9 145.291
7470 2 -2.89293 -58.4459 -20.7793 -22.4542 41.1495 -66.96 16.0861 -11.1848 15.7709 -92.3843 103.705
5458 2 -0.900521 -55.7238 -20.7972 -13.312 18.4118 -58.3318 -64.0873 31.2459 31.1075 -97.7632 150.382
15273 2 -0.573812 -55.6347 -17.9277 9.57321 -24.0328 22.0242 -25.9193 20.3142 7.70164 -95.6087 71.6533
17666 1 -0.340206 -55.7933 -16.3124 -26.7253 89.9463 -50.9361 1.17239 0.591146 22.2525 -345.006 136.065
7661 2 2.43709 -59.1723 -18.1738 -93.0491 135.056 -22.9188 -52.4685 14.5133 6.15928 -88.3318 223.512
15208 1 -0.014714 -55.5262 -19.4851 -8.34476 0.319904 22.2053 113.147 -70.1432 -85.2424 -340.159 275.154
12671 2 1.14268 -56.6698 -19.3669 -21.7767 -4.75524 -9.80769 -37.4794 11.2788 66.0734 -97.0155 133.873
22674 2 3.5191 -57.2783 -19.9082 -40.9528 32.4222 -18.2456 -17.0092 -11.2859 37.3963 -95.1788 98.3811
15345 2 0.672423 -56.9369 -15.9367 -25.9377 -43.2691 16.4677 20.6771 -11.251 1.98926 -93.2427 67.1401
10362 2 2.6204 -55.5895 -15.7267 -63.8602 -59.3969 10.0649 -51.0054 -8.71076 -21.9792 -98.9168 120.981
9914 1 2.20214 -58.0259 -19.4007 135.167 -134.763 41.541 71.5465 -22.2993 -78.1028 -346.667 302.497
5189 2 4.60512 -54.4916 -16.7135 -23.8419 -18.5468 -21.4969 -13.0952 -10.3149 -1.55235 -93.1743 29.3597
7495 2 0.176044 -54.4276 -15.6757 -17.1278 -23.7666 2.20718 -45.7512 -7.51999 -26.6299 -97.0806 95.5138
10026 2 1.53378 -59.0767 -20.419 -57.0929 86.0211 -60.7245 -42.7396 9.28699 5.04388 -93.9229 163.798
10202 1 2.02955 -56.8571 -15.0026 97.6511 65.9175 -10.0072 93.5791 8.11575 53.9465 -344.934 210.666
22575 1 4.76958 -56.1833 -20.0157 35.4424 31.6585 16.4918 22.9964 90.4789 -32.3555 -346.079 172.012
2888 2 4.594 -54.6017 -20.3756 -40.9471 -6.18997 -36.2427 -0.447402 -73.7997 10.0823 -94.6428 133.084
7606 2 3.21969 -57.9736 -14.9905 -67.8271 47.4806 -14.8844 -84.8734 10.567 -13.2577 -89.5715 180.186
12758 1 4.92201 -58.0092 -14.8949 164.442 -83.1733 63.8568 245.575 -50.3076 32.8416 -360.112 488.133
12722 1 8.02899 -60.2896 -20.1456 27.2729 -72.5002 168.292 35.6493 -15.412 130.355 -359.608 315.299
9996 2 9.54559 -60.1016 -20.6879 29.3374 -7.46675 -91.4954 -6.39938 21.3197 -53.1843 -85.6803 146.561
10280 2 5.4006 -57.0839 -16.1185 -68.1211 7.62271 -13.1839 -83.1799 3.81011 -36.0945 -87.9258 171.181
2709 2 5.44645 -56.1026 -18.5319 -18.6627 -35.513 6.45236 -27.4033 -29.2627 7.494 -91.2266 79.5495
12771 1 5.64698 -55.7459 -17.0049 9.6492 78.0972 27.9147 38.0566 26.6282 31.0909 -356.46 114.632
5135 2 7.10329 -55.0806 -16.8119 50.3231 -61.4543 -70.7622 14.4115 10.7894 -14.9754 -83.4546 123.557
22531 2 9.72397 -54.2995 -17.0373 38.0443 -59.1625 -79.816 -3.91592 62.2621 20.356 -79.9734 157.487
15277 1 8.64709 -54.9318 -20.4224 8.98839 56.5392 35.5474 -30.5061 -72.77 1.17742 -367.967 142.78
20070 2 10.2647 -54.7263 -20.4047 7.70531 -14.3924 -32.3656 22.4477 65.6944 -11.621 -78.0206 126.778
15140 2 7.37445 -58.8659 -20.3753 -27.717 75.0734 -87.4738 -47.6015 -2.12794 -44.7636 -86.9086 181.939
10258 2 8.19485 -54.288 -18.9403 20.5 -53.0151 -36.7107 16.0618 26.4293 26.3485 -82.6649 97.0767
27944 2 11.1561 -55.3821 -15.1598 -37.4204 -9.29231 -40.0434 -14.6028 54.6092 -12.1686 -80.3056 104.414
15268 1 11.1449 -54.9912 -16.7083 37.8513 19.7209 137.971 23.3932 -131.796 -6.89293 -375.138 257.027
15276 2 11.0668 -58.2897 -19.6312 -11.5003 -4.35261 -71.9905 -28.7682 51.3905 8.76554 -81.3526 121.568
22961 2 11.3932 -56.3611 -17.5218 -44.0927 22.669 -72.8192 -26.5921 61.7888 26.03 -79.0114 151.023
20071 2 12.6534 -58.9697 -17.6552 -119.797 20.6888 -8.57807 18.0047 39.7989 2.79198 -81.7169 149.094
10166 1 14.8114 -56.891 -19.6371 122.361 47.2492 48.9595 -114.931 80.9137 -101.424 -387.696 309.265
7586 1 11.998 -57.6416 -18.4288 144.228 -58.498 111.294 16.5233 -84.7766 -77.7146 -375.125 275.69
27848 2 13.2888 -56.969 -19.1482 -95.1852 10.0424 -43.5055 27.6344 -4.39518 45.8954 -77.422 130.283
17852 2 15.668 -56.9864 -18.2333 -45.3047 -59.0207 -7.39981 56.5003 0.816539 44.2812 -71.3188 132.688
27772 1 15.6066 -56.3462 -16.8082 50.9849 39.1957 79.2992 -144.199 -96.4283 9.85816 -385.649 303.054
20445 2 15.0292 -54.8268 -16.9757 -31.1411 -3.33858 -69.974 39.1013 43.2645 -7.98286 -76.7632 117.277
12850 2 14.6602 -57.2104 -15.8567 -55.0827 5.28002 -50.0555 55.6496 67.8798 -14.3666 -78.5093 164.616
22759 2 15.0801 -55.4264 -20.1932 -39.4639 14.3922 -49.9984 43.9022 -37.9755 40.6157 -71.0125 136.515
23 2 15.0975 -58.1699 -20.6076 -29.2538 -67.4601 -58.4429 34.39 -72.175 24.5809 -75.7068 148.946
15256 1 10.9729 -59.3859 -20.8255 -45.1968 80.0922 143.271 40.9431 -38.1682 72.294 -367.796 229.528
17838 2 12.9885 -54.2647 -20.9289 -14.1306 30.9231 -34.8357 7.07566 9.07865 -0.135637 -71.7342 61.554
25160 2 21.7969 -60.2959 -20.7788 -99.0068 34.3282 14.7543 36.9715 114.339 -8.79544 -79.8316 243.115
20183 2 17.0129 -56.0792 -16.0674 7.44571 -62.7083 -58.4629 62.4743 65.2217 -10.381 -74.427 171.569
25071 1 22.7079 -59.9454 -16.8035 272.182 -171.149 98.7758 -78.1387 11.0139 -15.0888 -370.845 411.218
24971 2 19.4734 -55.0036 -15.7723 16.0779 -65.6898 -44.8956 27.3744 -10.4874 7.08934 -78.3827 90.26
2727 1 20.9276 -54.3686 -15.4872 39.5366 64.7596 32.1994 11.5934 106.382 -1.23806 -367.36 187.709
311 2 22.0509 -55.5481 -15.9074 -36.913 -6.80511 -12.0081 -42.2853 -59.8321 33.3757 -82.6034 142.206
25328 2 22.1037 -57.766 -20.0748 -108.61 20.6817 -15.0654 1.87548 107.795 6.40001 -81.2338 219.922
314 1 18.1508 -55.5725 -15.0421 -45.0138 81.7535 192.949 -108.893 -83.3184 15.7979 -376.18 315.718
20264 2 21.2066 -54.9884 -20.1956 -84.7008 3.22328 -21.6181 -29.6745 61.8645 50.7869 -79.9651 167.406
24949 1 22.7397 -59.2812 -19.9114 239.271 -78.4173 -7.48003 -55.591 -200.04 25.2673 -371.256 463.311
22466 1 22.1518 -56.2486 -20.637 175.913 -22.9484 63.7144 33.2848 -211.481 -38.622 -369.212 414.48
20456 2 22.747 -58.2336 -16.4675 -113.309 75.2335 -22.622 3.77304 -19.2387 41.0169 -81.0374 181.313
17482 2 22.5962 -59.7729 -18.3838 -146.67 55.2273 -8.13509 41.1345 48.1565 -23.9641 -81.3483 213.871
15451 2 26.6141 -60.3671 -15.9095 -83.5984 80.058 -53.0356 37.0422 36.0261 -7.43914 -86.9529 175.76
2606 1 23.2357 -56.6358 -16.005 174.733 -73.821 18.4804 60.2062 59.1607 -81.7721 -365.281 297.979
25157 2 24.3473 -59.1865 -20.2769 -97.4455 32.4615 -35.2095 2.80482 67.1701 35.7372 -84.9445 173.363
27499 2 26.9029 -58.6897 -19.3568 -78.8103 31.8134 -25.4741 10.7796 18.3169 31.4016 -88.2233 116.17
2487 1 27.1589 -58.8685 -15.4722 138.808 -90.4777 32.5769 -10.3215 -51.2812 -45.1715 -358.533 232.013
9 2 25.7122 -55.2774 -18.8468 -117.811 43.1108 25.3032 -14.51 12.8839 -0.0653497 -88.5258 156.451
315 1 25.5029 -54.6096 -17.365 220.77 -83.8181 -64.1005 52.3738 -30.6571 -16.2374 -355.283 314.637
209 2 24.4384 -55.7373 -16.725 -118.412 38.0138 6.86843 -18.9557 3.46458 22.3562 -88.9899 152.252
5207 2 27.736 -58.1461 -16.8489 -59.6042 11.5175 1.6374 10.4423 -0.379856 17.6032 -89.7299 75.5672
25046 1 28.1255 -58.2534 -18.3936 121.121 -15.4942 54.8977 -29.3894 -16.6356 -33.9753 -356.203 144.522
2404 1 25.2173 -55.5767 -20.3898 195.981 -93.674 42.062 -30.9614 -54.7993 58.8625 -361.898 292.039
22644 2 23.636 -55.7054 -20.2793 -89.1286 19.9533 -31.9093 14.6736 88.1761 -6.14956 -85.1021 181.702
9892 1 25.8759 -58.6295 -20.6075 173.615 -102.556 72.0228 10.2521 -64.6003 -80.2496 -363.883 301.147
213 2 28.7722 -56.8006 -18.9351 -55.2516 15.6535 -27.4323 16.9275 4.80714 -13.2259 -88.439 72.6818
27563 2 25.7169 -57.0684 -20.9654 -81.9917 30.4867 -42.8771 10.2952 32.5087 -10.0811 -84.8392 116.512
2711 2 29.2 -59.4149 -18.4982 -87.4786 14.9686 -42.2007 13.1549 16.5136 39.6663 -87.7603 118.171
5070 2 31.7122 -59.2722 -18.2852 -102.24 10.2659 -18.4051 -5.76323 -9.5942 -8.05599 -84.0664 104.041
2301 2 30.3367 -54.5102 -18.1989 -52.7491 -13.634 33.9487 47.1488 -1.45067 9.3592 -88.1766 112.22
2609 2 33.6054 -57.7297 -19.0233 -70.1319 -12.5246 38.3068 1.08659 -55.1774 8.20918 -82.3718 134.796
2615 2 32.8004 -56.9939 -16.7411 -77.1615 -13.8086 -0.231236 14.3114 -2.88406 5.32889 -87.1177 76.044
121 1 32.288 -57.7434 -18.1278 148.516 -9.80064 -8.05616 -48.4347 38.1077 -30.8847 -363.805 197.603
9838 2 31.2986 -56.6697 -18.9115 -82.5375 10.2679 -0.19097 33.777 -28.7122 -3.2727 -87.047 116.96