ITEM: TIMESTEP
180000
ITEM: NUMBER OF ATOMS
29952
ITEM: BOX BOUNDS pp pp pp
-2.5145969113874372e+01 3.5131263448764344e+01
-6.6226074415798124e+01 7.6211368757798127e+01
-2.0970727384787203e+01 3.4838580530222146e+01
ITEM: ATOMS id type x y z v_StrAtomXX v_StrAtomYY v_StrAtomZZ v_StrAtomXY v_StrAtomXZ v_StrAtomYZ c_PEAtom v_VMS
5091 1 -20.5957 -60.256 -16.8668 -47.869 120.698 -13.8675 -25.3849 57.2732 -45.2893 -362.316 204.369
4572 2 -23.0561 -63.7234 -19.3782 53.2203 -52.9506 -40.0638 36.9909 -12.0411 -22.4519 -88.9256 126.974
24883 2 -21.9831 -60.2545 -16.0325 31.9212 -59.9813 -9.40318 14.2819 -19.8547 32.7678 -88.6279 106.638
98 1 -24.2398 -64.291 -18.4217 -24.8137 30.9192 -36.0006 -60.8951 41.4443 12.9478 -353.594 143.65
102 2 -24.1115 -63.8571 -16.8205 31.7748 -43.057 19.456 30.3749 -18.5709 -2.20339 -90.8784 92.9882
112 1 -22.0691 -63.038 -20.4593 -153.514 115.989 59.4919 -44.384 12.0431 -23.4374 -357.972 261.898
2695 2 -20.7011 -63.8559 -20.2972 89.9437 -55.5068 -51.156 -18.5899 12.9039 1.54401 -86.1195 148.611
2421 2 -22.0345 -61.4052 -20.2725 48.7291 -57.4945 -36.1307 19.316 -13.1182 -2.04815 -89.6421 105.445
29862 2 -19.994 -61.7651 -16.9411 23.4532 -50.1222 -9.43822 -26.9121 -31.6215 -3.21636 -86.9502 96.3263
4714 2 -20.0177 -64.3122 -16.0013 38.5147 -35.1665 -20.0371 -32.5894 -48.4426 -24.0824 -87.5023 128.488
2488 1 -24.2853 -63.3866 -15.241 -121.254 38.6088 54.6507 -37.3323 30.0599 22.8402 -348.71 191.924
27552 2 -24.4931 -65.8673 -18.701 -6.0786 22.5474 -5.40921 -0.608465 -17.5913 -4.26774 -90.5538 42.2475
27399 1 -23.1937 -60.4473 -14.9713 -47.21 28.6033 75.74 -62.1931 13.4811 -62.0542 -352.659 187.735
4683 1 -19.2865 -63.2506 -16.9208 -44.1604 92.7523 24.1132 102.651 83.2529 52.2754 -359.434 273.243
27475 2 -23.4295 -62.066 -14.8572 46.8363 -4.37943 -45.8067 26.2913 -9.87695 -9.03701 -91.6831 95.249
2882 1 -19.0817 -64.0459 -19.9774 -68.8474 38.6118 101.714 71.4973 3.29358 6.00782 -358.933 194.388
9701 2 -19.1003 -63.7981 -18.3969 24.8274 -40.0383 -45.2585 -48.4058 -22.1977 -23.8616 -88.742 121.611
141 2 -17.7606 -63.304 -16.3972 14.4079 -38.0235 -11.7078 -12.4562 -38.8549 -7.34406 -87.3142 84.9599
26 1 -16.3841 -64.0633 -16.778 -31.9886 54.8268 69.4667 -69.8479 22.0047 30.6333 -358.098 167.111
7769 2 -15.2612 -63.5418 -15.7764 31.455 -45.1466 -23.4728 53.5038 7.28043 5.67434 -85.4324 116.279
7127 2 -15.9759 -63.2615 -18.1648 31.1275 -41.5326 -41.9556 34.4511 -11.52 -35.0895 -89.0941 113.855
2503 2 -14.4772 -60.9187 -18.9614 19.0127 20.3842 -49.6819 12.9846 8.73316 -9.31333 -87.4744 76.2224
5186 1 -15.229 -62.327 -19.3318 -75.9118 42.4659 96.6053 -41.6973 16.4059 56.4168 -356.214 197.295
5099 2 -14.1074 -63.386 -19.8485 17.8762 -32.1208 -39.2786 13.2587 3.02889 -10.5887 -89.935 61.6447
2209 1 -13.9795 -62.5983 -15.4732 -4.31669 95.5707 16.7926 -70.4192 -16.0292 -35.1396 -365.188 166.332
119 2 -16.5859 -65.7104 -16.7667 -30.0807 14.8754 -37.3947 13.0302 -19.846 -28.4433 -90.6142 80.7549
2687 2 -18.2412 -60.1561 -20.5082 39.3759 -3.82668 -95.1085 12.9798 -20.5724 -12.2839 -88.2591 127.946
2514 2 -16.1441 -61.851 -20.4652 25.3493 -2.80709 -66.0139 6.2141 -26.2771 -22.8445 -89.9416 101.59
7461 2 -18.4301 -65.5179 -20.2626 -22.4017 2.97803 -17.309 -8.90044 -4.69175 4.09426 -88.4873 29.9131
9990 2 -14.2917 -60.987 -15.1451 -16.9159 8.26903 -21.2915 19.8999 -2.86757 22.1785 -83.4372 58.7534
12489 2 -18.4614 -62.8553 -20.8137 38.919 -19.8352 -60.5422 -12.7166 -14.3828 -12.2185 -88.3932 95.1548
5102 1 -12.8797 -64.2862 -20.3895 -27.5976 -16.4254 115.183 33.9649 -78.432 13.4828 -357.659 203.413
203 2 -12.9728 -62.5665 -16.7682 4.57826 -56.9286 -12.4767 25.8313 4.7371 11.7754 -86.4894 74.2297
10178 1 -11.366 -62.9034 -16.9 -24.2182 109.872 32.432 -37.1865 -39.6585 -45.9909 -363.261 169.722
4824 2 -10.8798 -62.2729 -18.368 26.1568 -42.4329 -40.675 17.6501 19.9063 4.73312 -86.9063 82.3264
7697 2 -10.6707 -62.085 -15.6431 32.1872 -57.4216 -19.0609 11.9886 23.8001 8.8174 -84.9495 91.8018
24969 2 -11.2467 -64.5877 -17.0477 -22.3242 -6.28554 -29.5581 -3.97555 10.3297 33.2794 -84.2897 64.1535
12519 1 -11.1076 -61.8355 -19.9281 -64.1973 18.0124 134.125 -43.3425 -20.5503 69.9003 -357.683 226.599
12656 2 -12.2069 -60.6475 -19.9871 10.0377 10.2941 -78.9685 20.222 -4.49395 -18.7747 -89.2017 101.439
10544 2 -11.7326 -63.2115 -20.5202 22.558 2.02433 -86.9984 4.08052 30.0323 -24.8174 -88.3889 121.565
5086 2 -12.4134 -65.2805 -19.1767 17.952 31.2307 -98.6752 -36.4965 3.29759 -2.57222 -87.5629 139.195
10219 2 -8.06008 -65.8668 -20.2506 39.7243 26.6755 -114.168 40.1636 -4.64403 0.984656 -89.4231 163.56
2504 2 -7.36949 -63.5634 -15.384 12.4708 -37.4403 -13.8 -12.4194 -24.1841 -2.66632 -86.8489 64.0994
12668 2 -9.72443 -61.2346 -20.722 50.4075 -34.284 -76.9965 -20.4198 19.9166 -37.0464 -88.9494 138.465
2536 1 -11.5338 -65.9619 -17.9837 -8.95401 -80.3753 167.401 61.5328 44.1689 -47.5538 -362.981 269.802
17588 2 -6.62673 -61.7986 -17.3267 -8.60125 -31.8492 -39.9078 -33.7738 32.3231 10.6611 -90.524 87.6931
2595 1 -6.21584 -60.4617 -18.2774 21.7417 26.4183 112.273 105.814 -161.181 -81.9665 -354.556 373.467
7713 2 -5.62952 -61.2417 -19.522 -28.2809 -36.8484 -3.8153 -60.7726 62.4448 59.8618 -89.6947 185.499
4909 1 -6.32532 -63.2049 -16.484 9.26628 22.498 48.446 35.6606 4.35049 -17.0543 -355.363 77.046
25064 2 -4.85892 -62.7103 -15.852 13.0802 -6.38749 -63.2811 -2.89022 11.2407 1.75589 -91.7556 71.6717
15292 1 -3.55612 -61.8181 -16.0645 -77.1537 36.3568 136.474 10.662 -85.0199 -70.3589 -348.178 266.739
7411 2 -3.08864 -62.1756 -17.6181 40.6019 -37.8467 -83.8374 -14.8024 33.0304 59.9265 -92.9685 163.037
7510 2 -6.02014 -64.6738 -17.1832 -26.0308 40.0158 -21.1291 -18.6072 24.3249 24.0592 -89.6054 92.805
12604 1 -1.93161 -62.7406 -18.5814 -81.8361 110.425 51.0393 -16.0872 -59.9107 -138.356 -352.553 313.121
7518 2 -2.36789 -63.2354 -20.0202 27.0531 -88.7089 12.769 2.88708 35.8438 48.4937 -89.4454 151.28
10137 2 -3.70514 -60.1418 -15.9018 14.8537 17.1031 -97.7724 -17.1566 42.5388 51.9413 -92.5255 165.374
12582 2 -1.81658 -65.9596 -15.6388 11.0513 -6.86402 25.0817 46.2611 22.5606 -10.3964 -91.4755 95.0823
20156 2 -2.36242 -62.139 -15.0424 30.6139 -17.8123 -21.5298 4.40547 55.2218 13.3506 -93.0313 110.816
2564 2 -1.52982 -64.1551 -17.7842 39.1196 -22.0112 -44.3961 6.45391 19.8519 39.8457 -92.1301 108.059
4914 2 -3.05168 -65.6285 -20.8231 13.8373 -48.2356 -22.7453 -23.1129 -5.3169 -11.4447 -89.9842 70.7171
7516 1 -5.31092 -66.1563 -17.2389 74.6539 -58.7941 21.3182 -45.7261 -68.2188 10.1006 -350.494 184.596
22463 2 -4.51763 -66.1889 -18.6513 -20.2673 3.40945 -12.9981 23.6309 37.865 -11.7476 -93.0914 82.6551
10212 2 -6.49891 -63.505 -20.8466 -23.5511 -13.9362 -27.7124 -27.7524 22.9627 21.1329 -91.5257 73.3621
10093 1 -1.08568 -65.4999 -17.0054 -106.738 -0.600405 49.8949 -42.8014 1.85722 -36.9008 -353.035 169.604
7472 2 -5.59976 -65.9147 -20.9847 -9.19666 -0.396535 -16.0662 28.6928 41.6517 -10.115 -91.6543 90.3684
20075 2 -0.705873 -61.6862 -18.5577 40.0358 -38.3602 -39.3213 17.6443 -13.2947 49.3163 -89.5627 122.404
10005 2 -0.334926 -61.1206 -16.0351 -17.1544 -25.0861 -28.9656 0.0157552 -2.17753 37.7641 -94.1152 66.3427
14776 1 0.294974 -60.9546 -17.4839 -24.9865 8.38442 108.879 -2.11047 85.5433 -63.457 -351.692 220.484
2576 2 1.67061 -61.8366 -17.5753 32.7488 -14.8223 -30.9504 -27.0958 -44.8901 22.605 -92.4781 114.329
12537 2 4.14169 -62.8185 -18.5307 -42.1495 -8.37823 -1.04416 -0.516506 -9.5209 23.9108 -95.5246 58.5652
10189 1 2.50562 -62.8142 -18.6721 1.05647 48.7469 19.6243 26.4754 64.3192 -39.6353 -347.405 144.776
15166 2 2.18913 -62.1102 -20.1632 -35.1029 -19.9738 22.1924 -8.43948 -21.7506 18.9257 -90.2729 73.1595
14794 2 2.09599 -64.3522 -18.282 17.6024 -13.6823 -17.0803 -17.2358 -27.3422 38.3162 -93.8609 92.9247
10009 1 1.97286 -65.3224 -16.9439 -38.866 -18.9549 3.26658 22.1245 38.3503 -83.1093 -349.766 167.137
12779 2 0.459615 -65.1937 -16.6172 43.294 -25.7962 -9.93178 -9.98313 -7.55128 34.1806 -90.827 88.9048
10134 2 3.02348 -64.7237 -15.8851 -19.4102 -25.7421 53.2588 -14.1265 -1.05156 43.0167 -93.0894 109.244
12417 2 4.49243 -62.5647 -15.6086 -20.0776 -51.2904 85.5106 24.5119 20.5014 14.707 -94.4324 138.315
12307 2 5.06104 -60.4053 -17.1969 -49.7086 -6.58873 11.9407 2.30399 27.7569 7.01281 -92.5977 74.0031
15170 1 5.60001 -61.5654 -16.2799 74.9172 62.9982 -121.707 -48.6056 -66.4922 -31.8468 -345.992 244.65
17488 1 5.733 -63.1003 -18.7004 74.2407 -29.4089 -19.0866 34.4084 5.04748 -87.8173 -345.698 191.164
461 2 6.08744 -62.08 -19.8982 -53.8076 -2.2362 36.3473 -9.39656 -17.7211 24.6824 -91.56 95.7745
20155 2 6.34766 -62.6078 -17.3326 -21.3287 -15.6833 33.869 -1.8851 23.8118 50.2047 -93.8378 109.728
5096 2 8.60321 -64.7145 -18.9384 24.5129 -40.6124 28.211 14.8839 18.0952 59.6598 -93.8876 129.694
5258 1 9.8236 -63.8179 -18.3909 15.2353 73.1046 -73.8217 2.27829 -25.794 -101.884 -349.766 222.68
15107 2 9.61949 -62.251 -17.8142 -26.6865 8.10915 0.243347 -21.4786 15.5441 55.8111 -90.1952 111.59
17547 1 9.50818 -61.1186 -16.6356 41.9441 -13.876 -29.6648 6.01886 1.00273 -11.244 -350.086 68.8294
7317 2 6.22104 -64.5742 -19.1933 -22.2899 27.0736 3.00734 -20.5068 -20.9013 45.8151 -95.7687 103.427
22687 2 9.13766 -62.0935 -15.3309 -17.007 -15.3552 21.9278 -25.7697 -20.3295 16.8907 -96.2037 74.4468
19947 1 7.36902 -65.7211 -19.1686 -12.9694 24.0312 -30.4254 -48.8734 33.9568 -86.7007 -341.313 188.403
14985 2 10.3848 -64.7595 -17.1962 -38.8648 -47.5711 38.0876 -22.5029 2.49449 26.0296 -94.8456 101.182
12483 1 5.79799 -60.7804 -20.7549 124.98 -9.28944 -94.8808 -18.6684 67.3098 -21.6966 -358.798 229.992
14988 2 6.35727 -60.8465 -15.0038 -22.2465 -42.6459 61.6757 7.3992 17.827 -10.8735 -95.9024 103.167
14946 2 10.8637 -63.7019 -19.5293 -37.1284 -22.459 41.1753 40.2402 1.17826 3.23427 -91.5448 100.456
15057 2 10.9236 -60.1247 -16.4751 -25.4938 24.6829 -11.8579 28.959 -28.5092 -35.2354 -90.8591 103.432
17565 2 13.3636 -62.9822 -19.4324 -26.6636 -12.7286 15.2066 86.2023 -7.6512 -47.4886 -88.9654 174.921
22586 1 14.382 -61.7022 -19.6467 23.2123 62.8887 -22.841 -147.115 3.18938 59.0705 -357.875 284.516
19957 1 15.1018 -62.2064 -16.578 -44.0994 -36.5722 46.4457 -104.159 57.2036 25.2529 -357.989 227.707
22637 2 15.7321 -63.7946 -16.7714 38.017 34.4892 -47.2659 17.9686 -9.12746 -23.1425 -88.9557 99.0455
29859 1 16.3023 -65.3467 -16.6684 -80.9909 -39.3626 96.8878 -29.005 -17.6321 33.4765 -351.61 181.073
7581 2 12.4403 -64.9535 -15.7648 -23.2238 -16.5253 -9.95172 -14.519 -24.581 17.7966 -94.5224 59.3915
19877 2 13.628 -62.5958 -15.918 27.5829 -2.39812 -23.5003 39.0098 -41.9409 11.4117 -90.5114 110.499
25397 2 15.7199 -61.044 -15.629 18.4774 26.9794 -31.7088 51.2763 -18.3861 -4.40562 -89.0306 109.443
27450 2 14.8939 -61.5775 -18.1298 -8.02458 -4.67628 20.6453 57.8983 -13.9935 -21.6188 -87.9855 113.064
12457 1 12.2694 -63.705 -20.3734 107.393 -33.3821 -62.5291 -167.013 -2.13227 87.5562 -354.928 362.577
19937 2 12.8355 -65.2352 -20.5817 -40.9407 15.3425 35.4142 48.2353 19.1477 -17.2321 -90.0306 116.923
17658 2 13.3181 -60.82 -20.6287 -33.8683 -48.9067 -1.69406 62.4397 21.4831 -35.5696 -87.7731 136.461
17395 2 15.4376 -62.0331 -20.7921 -2.43369 -48.6167 -0.490452 48.5441 15.9622 -19.9184 -89.4989 106.069
12481 1 11.5452 -65.8054 -16.8516 88.4234 31.7491 -73.6258 78.6063 21.4844 -33.7567 -343.565 208.873
17655 1 12.6597 -63.5512 -15.019 2.2672 10.7143 18.1659 -13.2234 62.8476 -73.028 -347.785 169.006
22595 2 16.8549 -66.1955 -17.9951 14.7064 -1.70326 -36.7191 52.9459 -4.27021 -18.2836 -91.9227 107.412
9726 2 12.1601 -66.1226 -18.2778 -70.0019 -22.0036 26.6406 -27.3261 24.8142 22.2874 -95.3989 112.172
22591 2 17.5093 -65.3189 -15.5978 -5.28507 5.84847 -5.02461 38.6887 24.5446 -18.9742 -92.8945 86.5965
25251 1 18.9472 -62.677 -19.9801 8.22684 44.0646 33.5786 71.023 -58.282 19.4887 -347.98 165.774
22453 1 19.7225 -61.5955 -17.4801 130.374 -48.1497 -56.5711 83.3417 1.18841 3.63451 -347.888 233.081
25229 2 18.5724 -62.2824 -18.4192 -25.2347 17.15 -29.1496 -23.732 -6.80139 -16.933 -93.1058 68.3103
2424 2 20.8047 -64.9793 -17.8859 -5.33626 -34.2967 11.6993 23.1139 -23.5857 -39.4864 -92.2239 97.8336
20158 2 19.4779 -61.6485 -15.8941 -57.694 21.5593 42.8967 -30.7118 20.2441 -4.1126 -92.5239 111.97
24900 2 21.0901 -62.4615 -17.6268 -32.2041 -30.2473 32.1799 -33.8096 5.32055 -1.65197 -93.3416 86.865
27755 2 22.1271 -64.0774 -15.7787 31.3984 -63.4428 46.8242 -12.7239 0.112857 -11.2605 -91.1899 107.526
17571 1 21.8922 -63.8829 -17.3647 -43.1431 155.231 -94.1357 47.6615 -7.14066 23.2635 -350.716 246.292
27257 2 19.419 -64.2284 -19.9432 -15.8859 -49.6527 -31.1025 18.1035 -9.07713 -21.0895 -92.5976 58.5031
25205 2 20.3218 -61.8377 -20.3731 -30.9992 -1.10206 -80.7281 -56.82 -38.5515 12.3542 -94.0523 139.483
14998 2 22.4852 -60.312 -20.1136 9.96412 53.3614 -65.1234 -19.2617 -11.5359 22.7395 -89.5566 117.659
20159 2 22.4809 -63.0216 -20.4856 7.46571 -81.237 -19.6345 -37.5341 -27.6218 -0.150049 -95.45 112.757
5389 1 20.1822 -65.5068 -19.2698 18.8072 14.7492 77.6815 -94.498 85.0772 70.5945 -352.985 259.184
22733 2 21.5921 -65.5112 -20.2182 5.34458 -21.1157 -26.9056 -18.04 -43.8244 -14.5156 -90.3022 90.8683
27556 1 21.8016 -61.6175 -20.824 24.435 -11.2264 77.6916 71.964 71.7702 -42.3288 -349.652 205.844
24970 2 23.2957 -64.0586 -18.0745 77.5466 -88.3238 23.2324 -42.9635 20.1202 -5.39168 -91.5147 168.206
29847 1 26.884 -62.0391 -18.7436 -5.96648 59.7687 -41.6834 67.4413 -114.125 -0.519889 -345.142 246.301
25125 2 27.9853 -62.7292 -17.7021 7.90049 -18.9668 -8.88993 -57.5723 50.8634 -12.0836 -99.56 136.732
25283 2 27.2565 -61.747 -20.339 -3.13447 -33.2864 24.9856 -29.4715 40.6892 -9.837 -92.1273 102.032
22847 2 25.6452 -63.131 -18.7739 35.3825 -32.2394 15.7083 -11.4602 63.9906 6.24693 -93.4993 128.159
25105 1 24.8445 -64.4844 -18.3225 -108.357 82.5305 -33.0613 73.7244 -100.922 0.694023 -350.1 273.125
29779 2 25.4098 -64.833 -16.846 50.2425 -16.243 6.03399 -30.3203 34.7242 -5.57224 -93.1658 99.5184
22477 1 26.1623 -64.9898 -15.4022 -173.744 -16.621 56.3357 51.6431 -1.46129 18.8906 -343.448 224.836
27767 2 26.1503 -60.7509 -15.6024 16.9078 -11.4759 -17.6285 -93.1396 -19.2863 -7.45039 -93.885 168.302
24983 2 26.6454 -60.6031 -18.0156 -14.1335 -4.88197 -24.9874 -75.4395 32.2448 -13.6009 -93.1362 145.091
19602 2 25.0205 -65.8348 -19.1669 12.3823 4.63442 3.73379 -55.7109 40.8211 -5.90847 -92.5686 120.344
27380 2 27.5338 -65.8084 -15.8036 61.479 1.91958 -26.3061 -3.75124 50.0839 -1.55206 -102.093 116.618
25145 2 26.0995 -63.4843 -14.8501 85.7057 -6.65047 -34.6549 -45.1374 -12.0483 14.2056 -95.2333 138.034
101 2 29.5511 -60.9839 -16.6971 -35.607 17.9371 -21.0424 -41.9469 32.9317 -36.8559 -98.8995 122.092
27570 2 34.8427 -63.4079 -18.9752 13.4524 -32.0693 27.8776 39.8283 -30.1623 -6.50218 -93.8918 102.723
27169 1 29.3818 -62.5824 -16.8702 65.3719 -9.94645 -32.891 136.037 -70.5594 64.49 -327.439 301.427
7688 2 34.3269 -60.8578 -19.4941 -15.0028 -1.56252 1.251 39.048 -18.3591 -8.97296 -91.8219 77.8031
377 2 29.5382 -63.5958 -15.5245 -44.6566 23.8729 22.714 -53.0648 41.1687 -29.2334 -108.901 143.924
146 1 34.0213 -62.3834 -19.8975 -3.5739 51.636 -47.8923 -98.8207 74.3884 9.29159 -345.894 231.55
27358 2 30.5977 -63.0549 -17.6939 -62.0839 -15.0047 63.5746 -30.3449 -12.8673 -27.3758 -103.038 132.658
2212 1 31.264 -63.6774 -19.0089 86.762 95.4252 -182.791 11.57 91.6003 40.5826 -335.081 324.936
29769 2 32.5176 -62.8429 -19.6081 3.48355 -66.0462 49.2983 36.7457 -58.108 -22.0095 -96.3116 160.476
22386 2 31.6687 -65.1523 -18.4073 -60.4844 0.151459 95.3225 -14.0896 -59.0286 -20.9413 -101.558 175.697
5 2 30.0782 -63.9261 -20.069 -37.7602 -46.7748 90.693 -15.7651 1.9723 2.97166 -97.5657 136.1
27379 2 31.1591 -65.5733 -15.9135 -107.017 4.0394 47.8461 -4.91264 -11.7001 11.1652 -112.038 141.332
27405 2 32.5546 -60.9025 -14.9599 -2.80534 29.9195 -45.1145 68.6792 -6.88062 -15.5788 -98.6556 138.803
2563 2 34.4594 -62.8248 -14.9231 77.3215 -20.158 -38.9332 59.834 -31.38 -6.19849 -97.5525 159.67
22324 1 30.7938 -64.4715 -14.8836 209.022 -73.2975 -63.7695 19.2988 -34.2558 12.9947 -306.918 286.792
22300 1 31.0282 -66.2587 -17.3829 168.82 -64.2584 -158.956 49.1231 58.0822 -21.732 -322.266 322.71
2602 2 -21.1083 -59.8253 -18.3427 27.8085 -70.4115 -19.7147 25.1235 -22.0071 -13.4045 -86.9006 105.468
2403 1 -22.0849 -59.761 -19.6364 -64.8944 114.047 75.5474 -53.6185 47.0302 67.7885 -358.287 235.922
22487 2 -24.4743 -59.6731 -15.6353 -14.9508 -14.2188 -24.9357 41.2703 -5.97726 25.5415 -91.714 85.332
24742 2 -23.6264 -59.5682 -19.3345 3.57703 -51.0131 -21.3776 13.0987 -23.0976 -23.3624 -89.1365 77.4155
12761 2 -19.6367 -59.3533 -15.9605 17.8872 -60.7732 0.163979 45.2626 -22.6968 27.585 -84.0261 122.808
20252 2 -23.6532 -54.4854 -16.4926 -59.534 47.1146 -55.3449 10.2282 -25.7853 -61.1692 -79.1811 156.455
15094 2 -24.4897 -57.0701 -16.0362 -82.491 62.1727 -31.0486 -8.92135 9.03966 21.4056 -84.8993 134.129
24878 1 -24.0338 -55.6305 -15.3547 137.549 -121.578 132.822 47.1859 12.3895 60.3904 -368.358 289.872
15203 2 -21.5861 -58.3144 -20.4188 15.8807 -19.2279 -59.7514 28.1954 -7.68462 -50.2918 -85.3647 120.197
10459 2 -21.0145 -55.4424 -20.7377 -19.8015 55.8112 -113.045 -7.2702 34.47 27.1973 -81.231 165.542
22688 2 -19.2627 -57.6616 -20.8616 27.6729 -23.546 -106.476 3.52941 27.2593 -17.9141 -85.1906 130.298
7408 1 -19.2445 -58.2797 -14.7504 -69.7557 109.121 93.0254 -88.9165 53.0271 -26.9001 -366.943 252.392
27734 1 -13.4053 -59.7871 -19.4912 -23.8393 -57.6617 88.9178 -11.2077 -9.21005 -10.8173 -359.415 136.58
5079 1 -18.0661 -58.5468 -20.3232 -56.1836 35.1306 216.376 -47.0999 -3.2956 -26.4489 -360.087 257.924
9786 2 -17.6828 -57.8447 -18.9139 -2.6341 -34.8098 -71.2817 39.0058 0.491038 24.5679 -85.7444 99.5731
9880 1 -16.7457 -56.5664 -18.4816 45.1641 20.4183 95.5556 -35.5701 -47.6914 -84.462 -365.436 190.838
14974 2 -16.3769 -56.7458 -16.8976 -26.3354 -27.1842 -16.5476 38.2945 15.1859 15.3255 -83.5488 76.8159
12683 2 -15.584 -56.7974 -19.5771 5.70253 -16.3712 -82.2921 29.6657 -7.55743 36.2244 -86.5179 114.176
108 2 -17.3013 -55.0242 -18.8018 -29.4826 60.6641 -110.858 -13.3847 31.1368 34.9459 -82.235 170.861
5290 2 -14.0072 -54.3572 -15.2922 -51.32 26.5017 -65.5791 -6.55077 -25.4003 1.90814 -86.422 97.1823
8057 2 -13.6409 -58.5697 -15.9498 -18.5391 6.91792 -25.7973 5.26882 -5.09284 4.98773 -84.7447 33.4849
5296 1 -16.4522 -57.0643 -15.2884 -9.8875 54.2158 100.667 -104.432 25.8469 10.7879 -368.814 210.515
4782 2 -14.1548 -58.8036 -20.4874 20.2951 11.5701 -64.4112 12.0059 -13.3258 13.8337 -88.9383 89.7302
22644 2 -15.8729 -58.5682 -15.0959 17.032 -22.3693 -57.6778 34.2753 -9.51648 -11.8043 -83.4031 91.6759
25332 2 -17.9964 -57.335 -14.8989 24.6354 -40.1781 -51.3025 67.8917 -54.9898 -6.81413 -81.7346 167.584
22562 1 -14.5377 -59.3887 -14.8586 21.8634 -22.7933 84.0423 -17.1895 9.7891 1.30312 -367.249 99.0766
10197 2 -13.1278 -56.3963 -17.5761 -29.1296 16.1008 -30.8387 30.2742 -1.85574 25.0851 -86.4018 82.3027
7748 2 -13.1904 -54.7645 -19.9131 -45.942 31.6496 -21.0017 21.9201 1.33364 23.1706 -86.3957 88.1179
5303 2 -9.77152 -59.5942 -15.2011 14.0165 14.7687 -46.9009 -11.3031 -5.50714 -22.6353 -84.276 75.9517
7767 1 -12.9358 -54.9382 -18.2766 60.8156 -47.5884 52.91 -39.5189 0.588622 -61.508 -361.074 164.295
12684 2 -7.37784 -59.2034 -18.5359 -12.467 20.1001 -64.5301 -67.2971 81.9711 38.7976 -87.9324 209.11
15174 2 -12.8867 -58.8485 -18.283 -19.1949 26.7011 -11.3435 10.1997 11.752 28.0639 -85.6053 69.978
7611 1 -12.7784 -57.8349 -17.0794 5.26795 -29.3553 24.0277 -27.6765 -12.5586 -19.0455 -364.119 77.843
27657 2 -11.3379 -57.8103 -16.4434 6.84282 17.8373 -127.512 5.58542 6.64473 13.4461 -85.7884 142.891
12294 2 -9.21453 -57.6897 -19.4096 -40.4843 16.9052 -35.8853 -26.4554 70.1834 38.4058 -88.085 156.053
5558 1 -9.91056 -58.0982 -15.6975 -11.3244 -67.1476 133.742 6.03132 8.3795 21.9478 -364.251 184.455
7116 2 -8.77769 -57.8311 -16.8371 2.8283 25.6382 -77.7301 -29.7623 23.6528 25.496 -87.1742 123.018
7457 2 -11.3992 -54.4899 -17.9956 -39.9972 11.9339 -35.2648 -17.3267 3.69412 17.0829 -88.4061 65.5022
10190 1 -8.10741 -57.8111 -18.2859 42.2862 -71.1651 130.735 86.0746 -133.071 -77.8601 -359.925 352.514
2612 2 -8.78912 -54.4381 -17.3149 1.64679 -11.3553 -107.131 -15.6331 6.26416 -13.8381 -87.8215 109.603
7512 2 -10.514 -54.671 -15.4585 -16.9811 -9.60509 -59.566 -34.7851 -6.31806 26.5161 -87.6944 89.672
12749 2 -7.28611 -56.3723 -18.2321 -14.8692 38.6013 -87.8831 -7.25396 55.4032 10.5814 -86.3936 147.636
12579 1 -7.21752 -54.9258 -17.5466 -15.8757 -6.70872 143.326 -29.4439 -56.735 74.7597 -360.972 230.205
2764 1 -10.2381 -54.0104 -16.9996 21.1803 -5.08105 114.974 85.4394 -14.9286 -7.36216 -358.778 186.228
5120 2 -6.80466 -55.0911 -15.9689 15.2592 -23.5546 -59.2719 -23.3771 35.029 -12.1177 -87.5989 99.6475
130 2 -5.18254 -59.4205 -17.5841 -15.792 24.6963 -97.5465 -32.0305 82.9396 42.6934 -89.2883 202.03
12772 1 -4.40217 -58.7663 -16.3628 -10.603 -83.9594 209.781 39.769 -116.487 -90.9064 -354.339 374.648
7979 2 -2.32786 -54.9129 -16.5007 -37.2046 50.1731 -87.3119 -15.0812 0.502211 -89.1265 -86.0047 197.579
7788 2 -3.42298 -57.5295 -16.4755 6.33416 41.0705 -116.156 -15.1027 19.4753 1.45089 -88.7062 149.311
22669 1 -2.23486 -56.496 -16.0637 -6.61495 -113.325 187.731 59.4271 -4.28791 100.175 -358.858 332.643
15065 2 -5.46687 -58.3718 -15.0447 -1.16128 25.1808 -48.4174 -31.7611 33.6653 35.1869 -89.303 119.635
10186 2 -0.918265 -57.1603 -16.6601 7.34763 34.8513 -90.1186 -28.4127 -22.2276 -27.843 -87.2893 138.443
10366 2 -6.28471 -53.7545 -18.0912 20.6034 9.32016 -97.71 41.9691 5.81502 -84.62 -85.8128 199.142
19833 2 0.420482 -59.356 -17.6603 -65.8239 -1.30528 -51.4756 -25.34 -62.7525 -10.0766 -88.9489 132.24
15172 1 0.554053 -57.8715 -17.0181 41.9958 -30.1013 77.1013 -3.82485 79.4776 40.6723 -358.579 181.433
12453 2 1.53787 -57.057 -18.0547 -74.3272 35.3375 -14.7703 3.5934 -31.7966 -45.6726 -86.0036 135.543
7678 2 3.88145 -58.1799 -18.5819 -74.6787 47.3955 -41.5684 -44.4582 6.20285 -17.2133 -87.3462 137.442
5175 1 2.78288 -57.0527 -19.0909 210.452 -124.622 33.2291 19.7231 0.791089 78.7822 -363.229 322.627
2491 2 3.49624 -55.5155 -18.8847 -119.507 103.407 -28.7035 9.96618 -7.76948 -54.9595 -85.5082 217.336
17968 1 3.9458 -54.2159 -17.9417 252.004 -130.832 23.2153 -10.1805 39.2532 130.776 -361.007 409.34
19968 2 1.21314 -57.7142 -15.5318 -21.8683 7.00061 -38.5705 16.8783 21.0283 0.228922 -90.3673 61.4484
5549 2 2.17383 -57.6068 -20.5793 -116.193 38.9837 26.9615 -35.8637 17.5934 -43.3556 -84.8827 181.067
17744 2 4.59837 -54.7803 -16.5081 -129.877 63.4002 15.1136 -15.8987 -2.16141 -70.6498 -85.6378 214.713
20162 1 4.46768 -54.9949 -14.9062 193.46 -110.206 43.1234 21.2346 11.2362 133.601 -357.422 352.762
17296 1 5.17012 -59.0545 -18.1709 85.9546 -36.3101 36.5639 48.7405 -23.0932 29.3273 -356.932 150.521
12550 2 8.51992 -59.889 -17.0695 -12.8287 -14.4661 -1.81483 32.1278 14.073 -36.6131 -90.8143 88.6246
20207 2 5.72383 -59.6699 -19.5736 -56.1643 11.6259 -2.02867 11.0175 -4.28679 -2.08586 -87.6426 65.4878
17568 2 6.39779 -58.3342 -17.4435 -15.5861 -1.97286 -23.3395 -0.834679 7.31202 -37.0975 -87.2198 68.1333
20101 1 7.96834 -58.3699 -17.3923 22.5446 28.6733 28.7685 -94.9221 0.983258 119.26 -360.107 264.085
20446 2 8.60185 -57.2616 -16.3042 -26.5405 22.0133 -17.6495 42.9539 -25.8835 -48.7739 -86.19 129.176
12444 2 8.55869 -57.9362 -18.884 -39.3234 -7.91098 -1.06189 61.0695 -24.9598 -80.354 -84.6218 183.512
22369 1 9.21951 -57.2347 -20.2007 159.377 -32.5127 -14.5383 -61.1082 12.2922 99.4606 -365.516 273.914
15099 1 9.84492 -56.4545 -15.5897 106.18 -82.1664 42.2762 -86.1461 89.9415 96.3508 -362.625 319.225
17839 2 10.5564 -56.3817 -19.7937 -109.694 9.71189 -15.8693 20.6493 15.973 -36.9895 -86.4519 134.19
10104 2 9.98395 -55.0984 -16.5131 -64.2885 37.5185 -33.0643 33.9785 -32.1281 -62.4395 -83.6233 162.533
20153 2 11.0182 -54.1872 -18.6337 -81.7612 53.0013 -42.2288 2.91161 37.0023 -34.2786 -85.7767 148.507
9895 2 10.9972 -57.5292 -15.6093 -33.5836 28.123 -32.239 53.3206 -31.1796 -65.5903 -88.9705 167.567
15106 2 8.21222 -56.0726 -20.8351 -69.2867 29.0134 -38.0736 -28.1113 -11.8285 -68.0119 -83.969 155.68
19885 1 16.4358 -59.6952 -14.9782 4.31112 -31.7131 26.6569 -50.2404 10.4375 21.4602 -352.083 109.008
14965 1 11.8948 -58.8422 -16.0594 -8.94766 -23.2833 67.0149 -105.211 69.3635 136.279 -355.681 332.298
17642 1 11.6773 -55.2258 -19.696 116.06 -56.2522 66.8147 -3.31421 -73.1144 57.8441 -362.4 223.022
20143 2 14.7814 -57.9034 -19.0556 2.81871 -28.7097 -18.4044 2.01425 -32.1977 -13.667 -89.481 66.7678
19963 2 12.7134 -58.0939 -17.3101 14.5729 0.965467 -26.2621 35.7513 -31.6094 -55.1992 -87.5831 131.415
22633 1 13.7025 -57.1022 -18.1432 -43.5689 32.3928 65.6584 -2.29266 31.3453 51.0242 -358.785 142.047
19881 2 14.7407 -56.5735 -16.9202 -2.5334 4.29043 -12.1517 2.23628 -4.20141 -8.2811 -89.5597 21.8723
24951 1 16.2493 -57.6813 -19.7438 105.584 6.24885 -9.60648 -22.2504 10.4066 23.1354 -346.69 122.922
27376 1 16.1081 -56.6987 -16.0671 81.0211 -21.5186 -35.011 1.39096 3.47336 -2.09539 -350.442 110.16
22654 2 13.0151 -55.9315 -19.0108 1.97479 2.14536 -55.2013 -7.99703 10.565 -31.132 -86.6513 81.9342
12439 2 16.265 -58.234 -15.7039 -34.2096 -5.5692 1.36093 21.6363 -15.5464 -9.69959 -92.7113 58.9788
12750 2 16.3909 -56.0719 -20.0798 -73.6113 -3.48678 -10.5083 -13.5461 -10.8676 -25.2614 -93.2084 85.4025
20325 2 12.8264 -59.3768 -14.8369 41.9339 3.7045 -48.3442 67.2392 -29.2675 -45.7792 -90.5955 169.058
12570 2 11.8324 -54.2438 -21.022 -47.2079 33.9011 -28.8742 6.87008 20.526 -20.0796 -84.768 89.6821
214 2 19.6061 -60.0928 -17.9653 -83.3279 53.5956 2.03997 -52.708 8.32154 -12.5869 -93.5798 152.854
22380 2 17.4668 -56.1378 -16.8174 -85.2304 8.53459 44.665 -6.89035 -3.62583 16.3494 -93.1537 120.286
10150 2 17.4018 -58.3484 -18.7681 -83.1187 8.99263 11.4522 -2.86929 -1.21796 -20.4207 -95.901 99.9863
25056 2 19.6343 -58.59 -20.149 -51.2109 43.2783 -40.4774 -36.679 19.8429 -31.7534 -94.0274 127.559
24985 1 19.0128 -58.6611 -18.5982 157.982 -75.0299 16.0364 68.711 -17.417 53.2011 -344.027 254.819
20225 2 19.1162 -54.7428 -18.4823 -75.8753 22.7569 21.2984 18.0823 4.16185 -5.24844 -88.6863 103.451
22538 1 18.996 -55.8479 -17.27 172.091 2.69861 -112.843 -28.6969 -27.029 -39.9776 -351.466 266.594
43 2 19.5053 -57.3242 -17.8215 -65.9268 -2.69265 27.8501 -3.52893 17.0063 -10.9006 -93.6747 90.1345
17846 1 19.4707 -54.5979 -20.1429 102.566 -68.0654 75.8669 -83.4659 0.68224 111.321 -355.601 288.704
15209 2 19.8755 -55.2953 -15.9981 -41.9644 10.4712 18.1714 24.6876 32.9254 25.8396 -89.506 101.471
20357 2 22.0034 -57.7185 -20.3537 23.1044 38.6006 -83.6054 -19.2704 4.18754 -33.6571 -87.4882 133.588
25126 2 19.951 -56.0751 -20.5319 -49.063 7.67968 -46.7522 42.9438 12.4491 -59.0366 -92.5929 139.812
15145 1 20.5234 -57.4955 -20.9337 32.6361 -37.7828 78.3746 28.5685 -23.0932 87.0371 -353.58 192.475
15004 1 23.1708 -58.8064 -19.9601 -5.26219 -73.0534 113.093 34.8255 -6.38578 -1.5317 -360.154 174.341
24882 2 23.3265 -54.2794 -19.8126 -67.5213 39.6493 -26.9505 49.4657 16.2603 -47.483 -88.0417 153.887
19995 1 26.5947 -59.6028 -16.7457 3.55187 -52.3338 83.3449 186.581 -5.87092 32.3508 -352.232 348.756
20244 2 23.6947 -58.3099 -18.5358 -28.2929 23.0116 -33.4179 -24.247 32.1818 -3.35886 -87.8205 88.4644
17577 2 23.9708 -57.6607 -15.7674 -78.9433 32.8767 1.69143 -38.2657 -14.7997 0.253019 -89.4546 122.634
25364 2 24.0408 -55.8957 -17.6781 -94.6082 65.5932 -12.1371 14.4925 -8.91103 -37.9015 -86.7114 156.307
22702 2 28.0358 -59.0675 -16.3142 -17.6544 57.9805 -42.4417 -59.9208 3.40162 -27.0967 -89.3975 145.667
18125 2 25.8247 -58.2686 -17.1244 -42.0909 49.6417 -47.3029 -85.9686 -9.52482 -26.0866 -87.7035 182.772
20222 1 24.3267 -57.5255 -17.3077 153.623 -85.214 29.4882 69.5962 2.87583 43.21 -359.206 250.922
20523 1 27.4443 -54.9066 -19.042 54.0947 -108.2 132.874 63.6426 -37.3047 26.775 -363.417 252.602
24879 1 24.2353 -54.4264 -18.3934 198.247 -130.864 27.3605 -48.1955 8.70226 81.2299 -359.808 329.038
288 2 25.8653 -54.5581 -18.6891 -63.2232 47.2351 -44.1049 -13.5053 -4.35515 -38.4174 -87.0877 124.445
25065 2 27.9737 -56.4771 -18.9975 -36.2534 91.453 -90.1449 -39.7262 -4.11472 -32.9119 -84.3945 184.744
25160 2 28.3839 -54.0545 -18.0007 -36.752 37.149 -47.447 -14.671 32.4914 33.8601 -85.8623 116.698
29875 2 27.3586 -54.3017 -20.4736 -40.5715 33.3636 -38.588 -46.0198 26.6764 -22.2818 -86.8611 123.699
2319 1 35.0597 -59.3345 -19.2789 64.5548 30.8458 11.3291 1.54345 22.2049 56.0657 -356.972 114.418
22285 1 29.3498 -57.3074 -19.2147 132.181 -170.769 132.615 42.4629 42.3433 79.0516 -363.816 348.491
22280 2 34.7135 -58.6792 -17.8355 -53.9053 -5.76803 23.4268 -2.96039 -5.65884 -7.0384 -87.094 69.6123
97 1 34.9286 -58.4449 -16.2794 113.465 -58.5451 27.6324 -38.4367 -7.01991 -46.0331 -358.462 182.01
17566 2 29.7209 -58.516 -18.1156 -90.4437 90.3233 -51.538 -14.4649 -22.464 -92.1931 -87.0991 234.089
27565 1 29.6195 -59.4001 -16.7472 92.723 -120.337 75.8751 31.2504 -52.6169 113.961 -352.66 303.785
4860 2 30.9244 -58.9338 -15.8945 -33.9095 72.4852 -65.8149 12.6854 27.9467 -24.3439 -88.7304 142.605
27453 2 34.3637 -58.2224 -20.2883 -37.3333 13.9564 -33.0793 -39.3239 -1.78382 -50.2813 -86.5594 121.094
10 2 30.3394 -56.0134 -19.0736 -82.5368 75.6563 -75.0229 -20.6696 -4.74627 15.0592 -85.303 161.005
2596 1 31.6369 -55.0876 -18.9387 143.052 -129.103 91.4772 35.9237 14.4072 -75.6706 -366.501 290.455
29868 2 32.0096 -54.7023 -17.4121 -67.8825 53.4816 -30.3133 -26.9549 35.05 30.5856 -83.8485 142.312
24961 1 31.7294 -54.0306 -15.9332 99.4643 -52.7611 75.2555 84.5271 -63.7372 -7.18024 -363.698 232.056
2962 2 32.6803 -56.2007 -19.6041 -52.0337 62.4843 -52.4602 -26.43 -10.7352 6.53924 -83.6189 125.431
10401 2 33.5408 -58.4995 -15.4675 -25.8937 67.6411 -55.4451 51.2209 6.50092 6.32871 -88.4853 143.192
25230 2 29.5696 -57.9784 -20.6323 -65.8534 49.6659 -18.0501 -16.3092 -24.1556 -26.2379 -86.3316 121.332
2716 1 33.3319 -57.093 -20.7384 52.706 -72.4324 118.143 49.658 28.6076 46.694 -363.781 211.007
20356 1 32.2585 -59.3066 -14.9219 19.6304 -124.753 129.852 -109.622 -3.17321 17.1726 -351.468 293.045