ITEM: TIMESTEP
1020000
ITEM: NUMBER OF ATOMS
29952
ITEM: BOX BOUNDS pp pp pp
-2.5145969113874372e+01 3.5131263448764344e+01
-9.3668150623555235e+01 1.0365344496555525e+02
-2.0970727384787203e+01 3.4838580530222146e+01
ITEM: ATOMS id type x y z v_StrAtomXX v_StrAtomYY v_StrAtomZZ v_StrAtomXY v_StrAtomXZ v_StrAtomYZ c_PEAtom v_VMS
10459 2 -20.6832 -93.5957 -20.4759 107.186 -115.461 10.2931 -10.7077 35.2556 10.1789 -96.812 204.379
20252 2 -23.6446 -92.5451 -16.2243 106.445 -113.665 30.6762 -9.48531 -17.3821 -73.4572 -97.5104 234.256
27457 1 -20.6439 -91.947 -20.4157 -236.097 265.771 -54.4007 22.0045 -80.7228 37.3514 -342.119 467.851
10445 2 -19.5768 -91.5552 -19.2945 105.193 -146.909 48.4897 -3.79563 65.0248 -8.70899 -96.5084 255.795
12791 2 -24.4442 -91.6208 -18.6627 101.055 -160.869 94.2706 -9.64962 -17.0501 -20.9815 -96.8828 263.335
5008 1 -24.0882 -91.2855 -17.1345 -225.726 315.844 -124.967 8.49864 44.0634 110.29 -339.945 539.829
2625 2 -22.0883 -91.3655 -20.0042 122.355 -158.245 46.9941 -16.9795 2.72214 -9.88206 -96.5776 253.868
2812 1 -23.7232 -91.0586 -20.018 -195.452 319.061 -153.381 28.5968 -2.50434 27.3027 -340.596 499.556
221 2 -22.9725 -90.1286 -17.1699 128.788 -187.696 49.4158 15.9311 10.1708 -25.9947 -96.6325 290.587
25175 2 -20.4841 -90.2265 -16.3278 195.013 -204.607 35.4904 1.785 31.913 -10.0871 -96.5845 353.222
27873 2 -24.0549 -89.4656 -19.9614 92.5664 -156.899 79.4933 -10.0142 6.36485 -52.0671 -96.2334 260.189
25239 1 -21.8494 -89.2878 -16.3908 -316.576 405.589 -104.377 -5.57207 -49.8597 16.6399 -343.972 649.376
24878 1 -23.9483 -93.534 -15.0912 -245.178 247.144 -83.8229 67.6813 -31.0333 94.7683 -332.535 482.237
184 1 -24.4694 -87.9458 -19.4659 -190.61 294.822 -149.243 -13.6335 -21.2948 177.301 -347.692 559.911
27846 2 -21.4743 -87.8877 -17.0823 128.881 -180.189 67.2583 7.99188 17.1717 -54.532 -92.962 300.455
175 2 -22.499 -89.0515 -14.9396 152.709 -209.597 63.0218 -3.17648 -9.79646 5.2753 -95.0451 327.44
5367 1 -18.9575 -90.519 -16.0556 -301.083 339.398 -69.5391 -11.7351 -20.7711 -10.0267 -334.04 563.505
108 2 -17.6274 -93.4226 -18.7391 98.6711 -113.08 31.6839 -10.7909 54.2192 32.2585 -99.772 217.788
5290 2 -14.2305 -92.3675 -15.1316 136.629 -77.0449 -0.408264 -13.2372 -30.5381 -3.31368 -110.865 196.241
2497 1 -18.1829 -91.9509 -18.5769 -214.747 235.829 -94.1925 24.2817 -128.45 -25.5025 -337.641 465.244
7409 2 -13.989 -92.0181 -17.7087 121.01 -84.2015 57.5247 -5.96701 1.24004 9.16433 -106.361 182.969
2889 2 -18.3965 -91.6905 -17.0283 118.317 -128.424 24.7951 0.255816 17.1284 22.8363 -99.9874 221.351
292 1 -14.2103 -91.2562 -16.3304 -278.723 145.59 3.0632 50.2102 32.009 10.5897 -317.087 388.398
272 2 -16.9898 -90.8927 -19.2587 101.983 -108.567 76.8073 1.81688 47.6707 -26.2208 -97.8724 220.351
10457 2 -15.478 -90.2667 -16.4096 129.266 -85.4444 -2.91129 -20.5051 -6.65926 -8.36534 -106.684 191.823
27549 2 -14.7758 -89.6231 -20.4048 125.091 -138.474 79.6045 -15.8712 21.6322 -35.0779 -96.034 255.73
2965 1 -16.3576 -89.6603 -20.0307 -203.681 255.548 -194.208 5.10301 -90.0901 81.6823 -342.88 501.072
25110 2 -17.9848 -89.3769 -16.6707 113.302 -156.136 39.5191 16.6633 21.2226 -13.5729 -101.706 246.774
181 1 -16.4926 -89.0529 -16.2672 -180.167 194.51 -38.8806 -38.898 4.72305 39.0132 -324.908 341.438
27468 2 -16.4632 -88.3366 -19.1252 74.1472 -111.727 78.768 12.6311 51.8945 -31.8124 -97.3103 216.849
10154 1 -13.197 -89.5341 -20.741 -207.317 191.557 -142.846 -36.5012 10.248 47.5808 -339.012 385.546
24966 2 -15.8291 -87.6127 -16.7521 56.5354 -76.6694 38.2221 21.3267 8.2205 -32.9318 -102.973 143.039
7748 2 -12.8757 -93.1543 -19.8878 64.2432 -78.8403 109.246 27.1998 7.45314 22.8446 -104.237 181.354
25328 2 -12.8712 -90.4026 -15.9729 115.6 -45.6783 -12.3181 -22.6694 -20.116 -4.80911 -109.275 156.743
7767 1 -12.9112 -93.0396 -18.2255 -196.165 175.939 -205.345 -14.4358 -35.7637 -43.9706 -320.295 390.159
12579 1 -7.4599 -92.9083 -17.6504 -222.243 177.876 -103.057 -119.095 40.8026 154.08 -317.536 495.358
7457 2 -11.5578 -92.4327 -17.682 104.033 -130.682 73.2501 -1.20654 24.2427 -15.3014 -109.775 226.458
7512 2 -10.2974 -92.1608 -15.266 158.416 -109.491 -42.2224 -46.9725 20.1254 3.35546 -116.3 257.188
2612 2 -8.95178 -92.3068 -17.5199 101.81 -97.5541 71.673 13.5969 -4.30964 -72.0622 -109.978 225.467
2764 1 -10.3099 -91.8296 -16.8383 -263.233 162.412 -41.0864 67.8507 -27.2985 93.4257 -311.476 422.136
15188 2 -10.4739 -90.2083 -16.8128 101.616 -54.6874 17.7403 -21.6987 -23.0373 -79.9344 -106.199 201.318
17970 2 -9.08052 -89.4814 -20.1641 106.317 -98.056 41.5424 36.4824 -7.42172 -49.7205 -104.148 210.476
10442 1 -11.5916 -89.4009 -16.0747 -145.272 33.8704 -23.6183 21.8959 36.525 15.9808 -322.11 176.932
2529 2 -12.5809 -89.0351 -19.3893 54.2408 -91.6887 77.0257 11.8124 -34.6032 -38.7826 -101.021 183.474
5553 2 -12.147 -88.2262 -17.0095 70.188 -58.3993 48.7609 9.39081 -36.1845 -31.5079 -103.7 146.319
10334 1 -9.11701 -88.0081 -19.5862 -243.224 236.944 -65.2754 -18.0783 57.6724 61.746 -327.43 446.294
5180 2 -7.87078 -87.8604 -18.6959 139.727 -111.432 35.0274 10.9221 -5.81012 -15.2918 -101.998 221.15
2594 1 -12.113 -87.7549 -18.53 -165.683 174.042 -144.096 -22.8131 106.144 92.6275 -331.87 411.881
5120 2 -7.13714 -93.4188 -16.1487 133.867 -128.074 -4.59993 -3.53293 -9.4165 -24.5297 -115.653 231.57
25438 2 -10.5401 -87.6392 -18.9673 77.0133 -108.163 57.1965 16.6885 -55.8925 -28.4936 -102.28 208.942
7979 2 -2.65909 -92.7286 -16.6524 115.538 -25.519 -33.599 27.0594 -23.2476 -115.103 -100.97 254.296
10366 2 -6.50177 -91.7182 -17.9915 124.355 -83.1982 24.046 93.8986 -55.8112 -144.709 -104.58 361.854
10551 1 -2.86437 -91.1334 -16.4267 -216.588 61.0829 -13.3694 -137.849 -20.4794 154.614 -333.925 438.124
7951 2 -4.3489 -91.1091 -19.3482 118.987 -148.449 17.8894 21.6757 -61.4253 -78.1214 -103.363 292.819
10115 2 -1.98568 -90.8604 -15.0931 88.875 -13.1122 12.4945 68.6496 58.0574 -28.7664 -97.481 187.559
381 2 -4.34919 -90.9236 -16.7669 130.137 -68.9071 -1.77568 73.8312 -30.0184 -96.4515 -102.24 278.798
2415 1 -5.26414 -90.7185 -18.0691 -258.013 191.148 -4.57802 -129.706 83.7647 225.944 -326.184 613.852
10249 1 -3.34615 -90.8479 -20.5872 -238.551 330.096 -124.267 34.7918 158.583 -22.7279 -328.86 593.346
17963 2 -1.93501 -90.4426 -20.0135 114.955 -153.347 55.3846 17.5622 -65.1805 8.38926 -104.78 270.987
12708 2 -2.07204 -90.1248 -17.4589 98.2243 -131.737 43.9453 70.9815 -2.17907 -21.8448 -102.594 244.76
2874 2 -5.68459 -89.1732 -18.1375 106.563 -88.9271 7.97358 35.8581 -10.5261 -44.2336 -103.966 196.78
15532 1 -1.23366 -89.7148 -18.7651 -248.266 265 -104.593 -71.672 55.7019 14.0269 -326.133 485.438
12843 1 -6.28993 -87.7675 -18.6271 -231.486 190.041 -50.5299 -61.4157 -21.4186 -22.843 -329.461 385.239
12774 2 -5.74113 -87.7227 -20.1446 128.12 -111.452 4.23738 35.9619 10.2605 -35.9803 -103.664 226.146
15359 2 -1.07363 -88.1399 -19.0745 92.602 -66.8981 43.3711 29.3422 -15.0984 -5.75227 -103.875 152.898
15373 1 -7.08753 -93.4704 -14.6315 -257.652 296.684 87.959 89.9885 -57.3905 -40.2667 -298.024 523.631
2491 2 3.48022 -93.5224 -19.0334 -51.4105 14.4685 110.086 29.3015 7.74699 -60.4382 -104.439 183.019
17744 2 4.55148 -93.1265 -16.5951 -52.6507 -2.10362 120.681 18.2627 15.5452 -55.1959 -102.465 186.287
17968 1 3.82617 -92.409 -17.8776 120.328 4.02068 -244.077 -78.7674 -11.6318 112.294 -325.182 400.979
468 2 2.47618 -91.5984 -17.6294 -13.9205 -19.2584 116.507 24.7202 7.6282 -35.9496 -104.716 153.692
15192 2 2.2891 -90.7979 -19.9871 31.9916 -116.837 122.429 24.42 18.3478 13.4702 -108.595 217.099
22585 1 1.86927 -90.3696 -18.519 -119.486 172.911 -208.169 -4.64124 -22.8863 -29.0643 -322.696 351.37
17575 2 0.279599 -90.2522 -18.5005 120.385 -113.997 76.5689 5.23629 -10.299 5.73112 -103.783 216.988
15234 2 3.27705 -89.4249 -15.6061 -50.6323 -37.526 108.701 -17.8377 -31.6815 -17.4971 -107.694 168.388
20096 2 2.50671 -89.0283 -17.9674 54.4485 -85.0262 104.894 28.2859 3.98937 18.0238 -107.114 180.157
20162 1 4.36207 -93.2171 -14.9728 86.4882 30.2542 -211.19 -49.7211 -26.4383 110.631 -325.862 348.233
10095 1 2.74685 -88.2332 -16.5954 -57.2858 177.542 -235.789 -34.7555 66.1235 -38.2527 -318.617 387.371
12785 2 1.24237 -87.664 -16.3686 73.5065 -113.219 115.17 6.40968 -4.52952 26.239 -105.467 215.945
7609 1 -0.0444656 -87.5784 -15.4126 -176.874 230.187 -167.79 -13.4518 -34.1728 -64.6349 -326.164 422.685
5182 2 -0.00229686 -89.1011 -14.7327 64.306 -61.1212 68.3773 29.6156 18.9116 3.02761 -102.242 141.389
7884 2 4.88526 -91.2011 -18.3183 -16.7067 -48.9356 101.542 55.4928 -39.0367 -35.0878 -105.791 190.62
10104 2 10.0366 -93.1009 -16.6493 26.2998 -53.2358 58.9132 41.5277 4.75216 -90.0697 -99.9696 198.903
19946 1 10.7049 -91.7684 -17.2598 -94.3366 95.8294 -98.1381 -69.4381 -97.6095 198.175 -333.342 444.712
12584 2 9.65347 -90.5875 -17.5133 105.042 -50.4473 36.1363 -23.0821 25.0024 -91.9362 -99.2759 216.89
15164 2 7.30821 -90.1673 -18.5154 110.811 -75.3727 29.0342 6.19181 -32.5774 -26.2363 -103.943 177.455
10082 1 5.77032 -90.0026 -18.9278 -118.859 125.854 -129.604 -124.082 73.655 -8.27619 -319.878 353.976
14805 2 5.53432 -90.0282 -20.5059 62.0872 -71.7803 79.7428 69.5636 -9.853 32.4304 -108.034 196.366
17572 1 8.72615 -89.4125 -18.0517 -260.008 165.338 -16.1726 34.5481 25.9323 83.1254 -329.677 403.718
27262 2 9.59622 -88.8439 -19.2996 142.71 -103.327 24.2992 19.0635 -19.1284 -25.5173 -105.375 222.628
8042 1 10.3351 -88.8002 -20.7419 -267.361 170.517 -71.484 -87.8988 16.3308 83.7348 -321.408 435.141
14769 2 5.38133 -88.4838 -18.4259 24.283 -64.772 51.3874 50.7003 -50.2865 0.806994 -109.962 162.416
7698 2 8.37862 -88.2523 -17.016 127.236 -100.214 10.1094 4.58644 -14.5462 -25.837 -101.088 203.745
20153 2 11.3003 -92.2626 -18.6699 11.7149 -41.6786 54.5653 58.481 71.0856 -89.1319 -102.679 237.124
17642 1 11.5659 -93.4228 -19.7353 14.0074 89.7508 -148.547 -85.6911 -128.611 172.413 -334.216 453.105
24971 2 11.8693 -91.2729 -16.3855 63.7903 -55.237 45.1458 79.6138 58.6613 -87.0199 -101.615 253.677
17701 1 13.1901 -91.2028 -15.47 -37.7466 120.183 -139.257 -136.007 -96.0984 162.221 -326.522 461.977
12504 2 14.491 -90.9538 -16.3841 -14.3462 -68.8025 72.1314 26.0611 45.2423 -117.449 -107.872 254.39
17581 1 15.7209 -89.9225 -16.551 29.2643 263.028 -259.225 59.7035 -79.7739 273.244 -317.062 677.555
22940 2 15.9463 -89.5131 -18.1209 -32.5039 -152.056 132.56 -35.3185 -1.74707 -158.727 -110.39 374.975
15171 1 15.6607 -88.9898 -19.5454 54.4516 326.14 -238.945 24.1865 54.7925 255.196 -306.07 667.642
12679 2 15.0087 -88.6673 -15.7661 -52.3278 -108.913 147.86 -41.2798 33.1951 -64.3189 -107.984 274.652
17666 1 13.5532 -88.3531 -15.162 136.723 140.323 -329.999 89.2168 -39.8577 86.8601 -325.765 520.386
22379 2 14.3768 -88.3 -19.8489 9.88596 -149.288 102.649 13.892 -18.5771 -97.1945 -116.687 280.466
17662 2 11.8646 -88.2711 -20.4213 149.202 -115.869 58.5926 65.0831 14.5703 -49.2294 -109.124 273.988
22649 2 12.7239 -87.909 -16.46 8.72304 -72.287 103.985 -36.9348 16.3852 -53.2443 -105.286 191.722
22485 2 16.6453 -89.1144 -20.7793 21.8219 -155.415 110.705 -44.9863 -68.8649 -88.9734 -111.35 314.823
17837 2 17.0145 -90.3762 -15.7299 69.845 -132.677 92.0749 -39.7478 61.1746 -93.5113 -104.894 297.003
15209 2 19.68 -93.1398 -16.3329 103.872 -96.0683 82.5782 -0.54268 5.05015 -9.39196 -99.9625 191.087
20225 2 18.8746 -92.9159 -18.7416 34.1287 -57.4695 98.2882 -48.9453 -48.2021 -52.0112 -96.0443 201.634
17846 1 19.4308 -92.7883 -20.245 -7.3925 101.458 -215.458 72.0552 31.5175 132.457 -341.763 385.977
20160 2 20.5946 -91.7961 -20.5056 50.9181 -79.9529 103.718 -12.5211 17.2542 -77.437 -97.804 214.891
17613 2 22.7023 -88.7452 -18.021 -5.94809 -140.373 135.467 -74.7963 -4.98887 -93.4173 -106.01 316.412
15343 2 22.7493 -90.1576 -20.845 17.368 -87.1883 161.313 -29.0635 65.6717 -83.6705 -103.937 288.405
25336 1 22.1543 -91.6897 -20.8473 -108.795 173.406 -254.18 -57.4341 -114.807 130.051 -333.055 491.914
24882 2 23.04 -92.5399 -19.8277 23.1305 -66.994 104.207 31.6906 56.9941 -55.5033 -101.962 209.768
20523 1 27.1539 -93.0991 -18.9366 -146.498 105.91 -129.915 168.231 -33.9535 87.7406 -324.719 413.833
288 2 25.5512 -92.9317 -18.7708 38.5835 -56.0176 73.9623 -53.6511 3.79269 -47.2101 -105.399 170.038
24879 1 24.0091 -92.6159 -18.4556 -16.8583 89.3846 -199.899 14.3592 -15.276 98.1967 -324.575 307.384
25160 2 27.9364 -92.7147 -17.6282 69.5696 -59.0674 53.9793 -73.6596 7.58104 3.90236 -106.706 176.863
29875 2 27.3633 -92.139 -20.1542 56.9802 -95.4738 104.359 -86.7454 16.757 -44.8481 -104.188 249.321
27362 1 28.5674 -91.6876 -16.5282 -127.195 206.139 -186.501 156.816 -2.59614 -34.6132 -319.277 460.202
22626 2 23.8956 -91.1397 -17.8405 -29.8253 -80.9315 139.187 -14.9204 -0.400356 -45.88 -108.61 216.328
22596 2 27.2937 -91.2332 -15.6754 69.4532 -145.76 133.709 -61.1673 -11.3474 -21.3462 -108.974 277.942
27927 1 23.9013 -89.6397 -17.2899 63.8169 215.557 -312.924 87.9358 15.1698 129.116 -313.885 544.084
2731 2 23.6699 -89.1769 -15.8078 -16.2571 -97.6768 154.983 -53.562 -12.4632 -49.1156 -109.846 257.302
19974 2 25.2684 -88.8619 -17.6471 13.5568 -123.451 155.318 -60.9586 16.9238 -68.0667 -110.91 290.166
22956 2 27.906 -88.8501 -15.383 50.9529 -125.044 143.692 -41.7468 20.0768 -1.05616 -108.117 249.676
24796 1 28.97 -88.7668 -16.6016 -127.193 250.616 -245.522 81.3289 -54.5898 43.4231 -323.664 485.682
22571 2 24.791 -88.2528 -19.9916 -20.9507 -103.012 185.706 -69.9068 27.5909 -97.4585 -110.432 334.423
19776 2 28.3652 -87.9227 -20.6043 53.2839 -107.147 114.281 -68.1932 13.1249 -82.7687 -103.459 272.514
22834 2 28.6991 -87.7826 -17.8916 43.9422 -113.231 129.727 -56.0696 44.8918 -67.4747 -102.531 273.279
25418 1 25.2882 -87.4699 -18.6892 -15.9435 214.052 -312.497 96.9944 -31.187 157.297 -317.366 560.728
106 2 29.0767 -90.3087 -17.143 75.473 -133.029 96.2335 -67.3262 10.9809 -15.4209 -107.381 250.812
2596 1 31.4662 -92.9388 -18.8445 -166.566 218.909 -183.405 68.1166 65.925 -6.77694 -331.29 427.155
29868 2 31.7199 -92.9815 -17.2222 107.479 -109.446 67.5523 -36.059 21.9796 -1.46849 -102.432 212.946
24961 1 31.5014 -92.502 -15.6746 -250.458 215.319 -98.2456 113.098 -59.7825 12.6041 -329.321 467.752
27550 2 29.8582 -92.2732 -15.7042 78.2531 -92.8293 87.9281 -74.6993 -5.2972 9.02182 -105.207 219.286
19795 2 31.3151 -91.3934 -19.3665 92.518 -118.149 103.757 -36.3918 -35.7295 -31.0395 -100.325 239.933
17407 2 32.373 -91.1362 -15.5505 139.865 -141.043 36.6383 -47.8107 18.6378 -13.0025 -101.831 262.631
22546 2 34.9582 -90.6995 -16.3102 137.941 -171.984 51.3975 -17.3763 -25.5157 -46.9743 -98.4031 293.599
87 1 33.5846 -90.1149 -15.6864 -268.182 319.356 -125.085 74.6777 15.363 11.3013 -335.959 547.197
29872 1 31.4858 -89.9944 -20.1406 -246.751 311.446 -217.763 95.2943 50.6032 100.967 -339.076 601.457
5287 2 33.0423 -89.1172 -16.8001 132.356 -198.798 68.9978 -27.6566 -25.5494 -14.1606 -98.2107 312.331
27369 2 31.9607 -88.7639 -19.1978 135.141 -183.777 99.2888 -29.4745 -21.8845 -53.6876 -95.6886 322.878
29943 1 32.8862 -88.1057 -18.0394 -264.387 374.09 -172.419 41.7982 66.2586 96.1885 -347.045 635.264
311 2 30.357 -88.1977 -15.9627 85.5758 -152.041 74.1642 -24.0533 23.8998 -7.75858 -101.928 239.813
5088 2 34.3494 -87.8769 -18.6212 109.432 -183.004 77.2622 -12.7265 -26.6259 -71.4181 -92.5185 308.318
2962 2 32.6509 103.524 -19.5783 95.8762 -119.245 89.6096 -34.8244 -29.425 1.63254 -99.5063 226.3
3084 2 -23.222 -87.2744 -18.6774 86.5837 -146.674 65.5798 22.8324 13.759 -75.5926 -91.9438 263.107
25335 1 -19.6681 -87.1149 -20.6061 -192.633 238.284 -115.871 -6.65364 -82.8118 132.164 -346.687 481.261
25248 2 -20.6944 -86.9371 -19.4141 112.787 -145.241 55.9385 15.4649 21.5277 -67.8581 -92.4052 266.578
2895 1 -21.7652 -86.7722 -18.2719 -198.196 276.586 -122.306 -63.5876 -19.993 135.747 -352.99 513.573
2682 2 -21.7314 -85.3019 -17.7841 88.2036 -138.75 59.1835 15.6579 -0.771668 -49.8008 -88.0878 232.253
276 2 -19.5741 -84.0087 -18.0351 137.941 -161.584 39.6859 33.4119 49.3202 -32.0963 -90.2247 289.269
494 1 -21.1011 -83.7616 -17.7534 -237.465 347.187 -133.128 -16.2486 -40.3297 71.0445 -361.422 559.032
5292 2 -21.3163 -83.102 -16.3346 130.925 -175.236 45.1802 12.8875 -25.0655 -5.86283 -84.3985 278.067
22832 2 -21.9055 -82.8394 -18.8547 89.9858 -165.045 82.7501 -16.9999 42.0179 -61.3285 -86.7799 284.069
25164 2 -24.2291 -82.4895 -20.0085 82.8994 -140.985 58.268 -4.99255 -5.36978 -47.5222 -89.8455 228.369
27723 1 -22.7621 -81.881 -19.8083 -152.378 260.84 -135.612 41.0147 -45.9222 105.146 -356.56 456.774
9 2 -24.7624 -86.9964 35.0195 73.9634 -123.901 72.2676 -3.21238 16.6881 -113.126 -93.9128 279.421
27649 1 -24.3477 -85.3316 -15.0008 -159.387 228.612 -69.5655 48.5613 57.8304 30.5947 -358.378 379.046
22599 1 -22.1189 -82.9758 -14.963 -240.029 325.705 -61.1531 -31.341 67.7731 -3.31197 -366.266 517.315
27763 2 -23.9131 -86.8468 -14.8213 101.484 -152.112 57.5946 -12.931 -26.3787 -4.01262 -91.5902 240.3
22735 2 -25.1945 -84.7194 -16.2412 90.4116 -133.016 75.7055 -31.092 -18.4896 -22.8577 -85.0989 228.787
22973 2 34.9994 -82.0674 -16.3042 92.5211 -162.395 93.1764 -29.9972 -16.1169 -27.8323 -83.2108 266.369
7880 2 -18.2308 -86.9574 -19.9717 59.6483 -111.48 53.8667 19.1918 57.393 -41.5627 -94.3153 210.946
24963 1 -16.9334 -86.7831 -19.0184 -130.015 158.716 -131 -32.0393 -157.321 96.0763 -342.28 434.365
28022 1 -15.2926 -86.3323 -15.9034 -116.471 96.2867 -128.363 -36.6371 -49.9678 20.431 -329.164 246.387
10341 2 -15.5963 -85.997 -19.4989 71.1691 -70.7327 65.7143 -1.72758 40.8425 -59.9679 -96.1432 187.599
25427 2 -17.5103 -85.669 -17.8898 60.1396 -100.478 37.8284 19.3804 62.2491 -36.722 -96.4737 198.77
12577 1 -14.2917 -85.4886 -18.7014 -177.931 116.884 -96.6607 36.4449 8.36421 138.571 -338.704 362.439
25416 2 -14.6038 -85.4834 -17.1276 61.0236 -76.3562 65.6299 -4.28825 4.55003 -42.536 -100.61 158.343
7946 1 -17.9396 -84.0828 -17.8387 -136.532 230.667 -124.059 -52.5813 -120.214 78.7065 -343.974 447.933
465 2 -13.8462 -84.0039 -19.0533 93.5172 -97.1004 76.7471 -22.7312 7.32121 -73.6741 -98.5481 226.747
12828 2 -17.2575 -83.4623 -19.1498 37.027 -124.661 108.157 32.0023 52.3947 -62.1877 -97.623 256.151
27791 2 -17.6199 -83.1467 -16.579 37.8747 -101.974 65.0036 20.4762 46.8357 -15.3274 -97.052 180.64
5267 2 -15.5172 -83.0295 -15.1782 3.74441 -66.9003 65.1906 4.44258 46.89 -10.6899 -103.6 141.793
182 1 -17.0958 -82.6167 -15.1818 -54.7573 180.232 -131.293 -13.394 -75.2205 7.43787 -336.172 311.033
10372 1 -16.8386 -82.3701 -20.2464 -89.8882 324.311 -277.801 -31.5386 -96.5389 89.4723 -334.234 582.808
3129 2 -16.4831 -85.6843 -15.0711 -13.3296 -47.5079 46.1307 37.7183 16.2121 -18.0118 -101.109 112.985
269 2 -13.6515 -81.7621 -17.795 83.755 -191.77 124.813 -21.8911 18.6015 8.52625 -100.011 302.665
7963 2 -15.398 -82.5486 -20.8895 57.2667 -188.646 92.5279 8.22557 31.5428 -56.0251 -102.76 288.083
7782 2 -14.2266 -86.9128 -14.8361 63.8266 -63.8808 41.104 17.2029 27.7195 18.6142 -104.428 134.744
2956 1 -12.9583 -82.7399 -18.8271 -231.101 331.237 -208.547 45.9246 -16.1738 93.4142 -337.288 580.81
7496 2 -13.0795 -86.5138 -18.9376 101.553 -77.6642 37.3903 -13.0617 -33.3413 -45.4967 -98.7266 186.529
10290 2 -8.88738 -86.9373 -20.7631 82.7241 -98.6571 -10.1927 6.01537 -4.19717 -21.0423 -103.593 161.768
28016 2 -10.4622 -86.3829 -15.5899 70.4052 -85.4278 63.4059 47.6329 -30.5489 12.4311 -100.888 182.516
12783 1 -9.61626 -85.0268 -15.7707 -184.904 229.918 -126.553 -69.0059 65.5198 -9.56771 -336.917 422.748
8023 2 -9.88024 -84.5665 -19.9924 74.4606 -74.1159 15.6091 19.8463 -28.1905 -28.1907 -98.9127 150.812
10485 2 -9.53677 -84.5347 -17.3189 81.0371 -120.929 96.2199 22.4193 -24.6464 -12.372 -97.6299 218.807
7876 1 -9.97911 -83.701 -18.6503 -178.317 203.618 -118.451 -49.0498 49.8782 65.5984 -339.48 392.663
5542 2 -11.5293 -83.3392 -18.3473 110.121 -130.177 77.6207 -5.02501 -14.9678 -32.5309 -97.7912 234.334
8180 2 -9.32875 -82.1939 -18.8276 106.473 -156.939 60.1798 57.5701 -38.2691 -43.6417 -96.6618 281.753
132 2 -8.22873 -85.3638 -15.0418 149.46 -131.714 25.9136 34.9243 -37.9597 13.4797 -97.8282 260.982
7485 2 -12.4816 -81.8414 -20.0982 148.209 -208.733 83.8831 -3.83917 26.2686 -78.7554 -98.5719 359.592
12703 2 -1.66763 -87.5143 -15.6059 94.0903 -97.6433 60.3782 5.53989 33.3735 30.6121 -102.344 194.112
5092 1 -3.08274 -86.9595 -15.155 -206.969 226.962 -93.9497 -24.4291 -53.8367 -49.9723 -331.943 412.315
5854 2 -4.08926 -86.855 -16.3451 84.2352 -100.385 40.2049 38.796 16.1153 30.1114 -101.57 189.497
7596 2 -5.98476 -86.3704 -17.8779 102.261 -87.438 29.1459 55.1662 19.6396 26.3094 -100.001 199.563
12939 1 -5.02153 -85.6947 -16.8096 -169.559 222.141 -74.3758 -108.969 14.6464 -14.3608 -333.215 402.604
12606 2 -5.7934 -85.062 -15.5529 121.125 -131.256 20.9823 31.4643 -37.3732 15.0159 -98.7534 237.249
7783 2 -3.4985 -84.7534 -20.1103 62.2962 -52.9003 38.5516 37.476 -6.69107 -20.3663 -100.027 129.193
570 2 -4.14122 -84.5584 -17.5114 53.1835 -79.935 35.3217 55.9247 -12.187 -32.9624 -100.979 169.557
10188 2 -1.4006 -83.8036 -16.2743 37.2284 -52.6871 61.6879 25.8991 -1.56789 -59.1502 -99.4575 152.965
5475 1 -3.7726 -83.7383 -18.8773 -96.7237 97.4383 -72.6326 -73.4611 5.96985 83.2846 -334.472 265.908
2791 2 -2.34562 -83.0007 -18.5613 36.7991 -24.1145 31.4948 37.8181 -12.9417 -27.0408 -100.605 101.991
7865 2 -5.01328 -82.7773 -19.2839 83.2042 -64.1452 19.0458 39.026 28.0058 -57.7935 -98.4538 182.529
10567 2 -3.27243 -82.5601 -15.0549 6.48385 -21.1121 48.3508 31.0292 -23.2978 -18.8965 -96.0159 96.2173
577 1 -2.31637 -83.8755 -14.9521 -72.5295 153.037 -164.964 -22.1486 -56.8113 70.6648 -337.944 326.204
15180 2 -2.94647 -85.3872 -14.7885 71.4271 -141.485 58.0287 22.3508 42.0362 -13.132 -101.458 223.552
10273 1 -5.90346 -81.5868 -19.9694 -227.31 255.106 -39.4546 -163.342 -43.5086 134.188 -336.964 563.144
5219 2 -1.69084 -86.3375 34.7378 85.368 -43.7238 13.9204 19.1715 -27.7047 -30.9587 -101.593 137.211
15484 1 -0.965655 -83.3718 -17.7944 -82.2701 46.3377 -78.2891 -73.5323 47.3964 54.215 -334.716 218.682
15460 1 -0.548828 -87.2608 -20.3482 -148.844 63.685 -56.7859 -38.5412 67.1014 25.602 -327.676 232.398
15371 2 3.71472 -87.0625 -16.0049 -29.6821 -91.1768 115.875 30.614 -85.9329 -2.2299 -108.902 242.692
24967 2 0.684882 -86.2853 -20.0183 68.6675 -38.6811 39.2921 23.8082 -24.294 -19.5816 -103.235 117.706
12782 1 1.06462 -84.7943 -19.6624 -164.258 125.07 -99.0083 -26.6827 40.8434 35.2239 -330.912 282.759
5196 2 4.67351 -85.7453 -18.5138 4.61679 -41.3057 76.4219 22.2592 -48.6114 -61.2062 -108.341 174.289
17480 2 2.45051 -84.3929 -18.9632 88.1645 -56.2194 55.3312 7.5542 -21.9078 -23.4749 -102.13 142.998
15183 1 4.08457 -84.304 -18.8633 -67.3175 76.8991 -126.05 -43.7505 83.2543 70.875 -324.339 272.624
8165 2 -0.174453 -84.4066 -18.715 51.9737 -63.6887 52.8582 1.65749 -28.1935 -9.36865 -101.106 127.032
15276 2 4.61283 -83.8822 -20.3421 34.0814 -56.3077 58.0543 47.4795 -39.9309 -37.5079 -106.696 163.336
9787 2 0.114322 -82.1478 -17.5735 22.3449 27.4034 14.5656 35.8597 -9.61727 -15.9599 -99.0986 70.8861
20268 2 4.77572 -83.2249 -17.8953 -2.75471 -11.7934 39.5854 25.2648 -76.9341 -11.4003 -103.161 149.394
15362 1 4.9601 -86.5017 -15.0765 32.5945 188.495 -223.856 -61.2868 228.801 -4.96461 -325.359 546.301
12874 2 5.70835 -86.9733 -20.5162 7.3205 -23.0237 80.1885 25.0041 -33.885 -50.5898 -108.554 146.423
12949 1 5.67342 -86.929 -18.88 -22.9671 97.5513 -122.875 -45.3254 86.9604 91.4883 -314.575 300.843
12860 2 6.38371 -86.9182 -15.7099 61.1726 -114.692 78.5579 45.4376 -86.7716 -21.6824 -101.974 253.929
15266 1 7.65347 -86.8345 -16.7054 -210.888 205.805 -18.0332 -95.0565 52.4814 -0.0380795 -329.626 407.229
10284 2 7.05976 -86.5322 -18.1606 61.6951 -69.7971 28.7439 27.3731 -27.7004 -26.9412 -107.772 144.119
15644 2 8.72677 -85.8318 -16.1623 97.4507 -96.019 -3.39455 63.6725 17.3868 16.9885 -98.7223 205
17860 1 10.0763 -84.9256 -16.3272 -175.654 158.161 -11.9032 -8.19639 -78.3408 -82.3819 -334.323 350.083
20445 2 9.64962 -83.5103 -16.971 50.525 -59.514 26.6816 4.10034 38.1873 0.113578 -101.157 120.327
20453 2 7.13045 -82.8328 -16.8686 57.2499 -65.0842 38.2573 40.0546 1.47269 -24.559 -100.853 140.114
18160 1 8.5947 -82.452 -16.3611 -116.07 166.1 -32.2313 -55.6046 -103.542 36.3214 -334.929 329.223
17869 1 5.8984 -82.1203 -17.5943 -36.2696 72.5281 -133.316 -39.056 112.358 39.0631 -330.953 280.786
12851 2 9.85235 -81.9591 -20.8879 83.2279 -56.1353 58.6699 18.928 -29.0822 -17.07 -106.911 145.22
17659 2 7.18334 -83.3546 -20.7443 24.265 -35.2993 48.8693 49.4006 -61.2162 -33.8639 -108.984 166.201
17780 2 9.1063 -82.6167 -14.8399 34.9926 -137.154 77.2017 24.3609 27.5769 0.206533 -95.7773 206.746
15515 2 10.6592 -84.5195 -14.8715 29.3952 -106.536 53.4105 -12.6508 45.9894 3.34986 -97.3162 170.814
20240 2 11.241 -85.7542 -16.9608 100.145 -84.1359 29.4553 -31.3585 10.2025 32.1394 -102.225 179.696
17463 1 13.1274 -87.3072 -20.1619 -182.728 239.027 -188.01 -30.3018 4.83842 120.678 -307.939 476.076
17608 1 12.5983 -86.5182 -17.1977 -76.7293 151.3 -185.158 71.4152 19.7955 5.86104 -322.674 324.127
20279 2 12.8828 -86.6196 -18.7519 61.2684 -95.1703 107.504 -14.3102 -27.2986 -28.7304 -109.914 197.915
12776 2 13.7583 -85.688 -16.441 -53.3179 -21.7672 115.708 -15.8355 -18.9447 6.60834 -105.154 161.84
18071 2 16.2265 -84.9811 -19.9487 -2.82147 -0.423146 64.2547 47.9774 -50.4703 -2.29518 -112.347 137.503
22851 1 14.5721 -84.3049 -16.1821 88.7829 28.892 -267.385 -33.6451 62.9042 15.2324 -328.181 353.658
15120 2 15.5299 -84.1016 -17.4619 -49.0139 -13.7809 133.496 34.662 -47.8313 0.474119 -105.277 196.442
25069 1 15.9791 -83.6853 -18.9931 37.6116 14.3329 -189.879 -61.7196 77.4804 -43.8051 -316.332 286.692
10196 2 13.587 -83.0777 -16.1903 -5.06895 -31.3901 82.6503 -4.98548 -42.9954 -2.20501 -103.843 127.794
12657 2 14.8402 -82.7042 -19.5833 4.67167 -3.86866 60.6705 -17.2128 7.73908 4.71483 -108.627 69.4425
17677 1 13.1702 -81.6751 -15.5002 -20.3362 60.0617 -90.7572 20.393 59.7158 67.2614 -327.643 206.404
25426 2 12.614 -81.2647 -20.1349 68.8645 -38.6241 100.94 -29.8214 39.0203 -10.6627 -104.793 153.646
27472 1 22.4342 -87.2005 -18.1038 -7.44231 271.715 -364.554 187.61 -25.9934 160.4 -326.865 699.966
17601 2 21.7561 -86.8053 -19.5286 59.1956 -156.44 188.44 -89.2626 58.6681 -118.928 -102.781 409.553
17493 2 21.6018 -86.4767 -16.9264 13.8126 -126.633 166.054 -77.3127 5.72194 -47.3571 -100.193 298.399
15158 1 21.5944 -85.8042 -15.5087 -36.4821 171.753 -247.256 95.5379 -27.4981 47.0662 -332.317 409.847
17691 1 21.9195 -85.5716 -20.5658 -108.276 274.464 -358.222 208.439 -79.2329 146.472 -319.842 719.835
25536 2 20.9373 -84.3314 -15.505 31.7354 -51.4819 84.0704 -77.6118 47.8162 -54.0034 -98.1148 218.399
12756 2 21.3793 -84.252 -19.7793 45.63 -100.479 162.457 -105.708 34.4568 -26.0312 -103.402 301.965
22703 2 17.2833 -82.762 -18.9965 15.2538 -75.0752 100.114 11.3197 -40.3694 40.1996 -108.574 182.064
12650 1 20.874 -82.7354 -20.0059 -90.5499 170.738 -275.559 138.821 -18.2682 -58.0105 -325.027 468.776
17850 2 22.4999 -82.2463 -15.3835 41.4558 -36.4341 48.2866 -69.9349 64.8364 -44.717 -101.177 199.821
24965 2 19.807 -82.2096 -18.9293 42.7058 -123.536 164.782 -40.5454 4.47231 39.0558 -103.887 269.074
17926 2 18.3 -82.1161 -16.7724 41.1699 -119.84 111.415 -26.1613 53.6313 7.32175 -102.909 230.243
20270 1 18.3637 -81.8168 -18.3544 -71.2189 255.406 -290.388 31.2732 8.77104 -99.7241 -322.389 509.22
20639 2 22.1474 -81.7844 -19.9365 46.1053 -73.8212 130.913 -48.6141 41.1481 40.8614 -101.758 221.187
20226 2 23.132 -85.3949 -15.1043 -3.94519 -67.059 116.799 -26.1076 34.7262 -4.01351 -105.172 178.589
24962 1 28.2638 -86.9745 -19.2572 -49.4449 181.543 -240.68 82.8801 -47.9838 168.315 -330.166 496.593
22558 2 26.6569 -86.7255 -19.0764 23.6445 -84.1237 140.489 -26.5464 26.0019 -74.5063 -105.506 242.188
2405 2 24.0069 -86.6739 -18.1749 -36.211 -102.378 179.726 -71.0951 20.3149 -50.7895 -106.507 299.057
25349 2 29.1048 -85.6008 -19.3568 11.5248 -82.95 109.831 -21.5244 15.827 -55.7811 -97.6088 198.376
12837 2 25.2494 -83.8875 -16.1256 -18.794 -60.1877 155.672 -7.51125 19.8473 -8.8633 -103.346 202.386
19975 2 27.7781 -83.5525 -20.2583 23.9384 -124.739 124.923 -17.7949 28.3357 2.70086 -100.208 225.161
22830 2 25.314 -83.4717 -20.6479 34.7857 -82.067 135.505 -32.7086 66.2334 5.8114 -103.296 228.122
22660 1 26.0232 -82.5813 -16.7281 31.5082 183.719 -329.692 75.8018 -27.2951 17.575 -331.305 478.551
23161 1 28.8365 -82.8476 -15.2586 -98.9836 231.498 -147.512 49.6712 -10.5983 81.6176 -331.929 394.124
22741 1 26.4724 -82.6853 -19.898 0.159857 184.518 -296.748 84.0315 -99.3706 -19.0258 -335.74 478.302
17758 2 27.4633 -82.3908 -15.9949 5.95719 -106.072 101.379 -24.0914 6.38219 -24.125 -102.753 189.619
28018 2 26.2363 -82.5828 -18.3218 -53.3875 -98.9067 192.566 -38.1839 27.8821 10.1402 -99.0842 284.21
17570 1 24.5854 -84.7582 -14.9384 12.4684 105.999 -226.428 9.9008 -77.7751 38.386 -321.766 333.204
20337 2 24.9023 -81.4929 -16.3043 3.8939 -61.0991 118.72 -64.1632 38.5037 -25.816 -102.148 208.973
17657 2 23.4587 -85.4121 -20.9473 36.2452 -125.876 183.65 -84.5575 53.9768 -69.7969 -109.879 341.634
27433 1 29.2407 -84.0946 -19.9811 -101.942 271.827 -212.192 -29.3444 14.2629 14.3374 -341.022 443.708
4802 1 31.4967 -87.0196 -15.7541 -184.207 224.638 -126.092 93.388 6.84307 -17.4019 -342.999 417.115
2891 2 32.1506 -86.8897 -17.2478 98.4039 -121.321 67.4295 -38.6612 -8.93601 -29.5739 -91.068 223.114
27660 2 30.7437 -85.8392 -15.1102 56.0916 -50.4646 39.4846 -53.7619 4.2802 -6.85589 -96.411 136.848
27750 2 34.3752 -83.4358 -18.409 53.9043 -179.14 125.17 -36.7659 -28.789 -40.4569 -84.4808 295.717
482 1 34.2596 -83.3744 -16.8252 -198.481 358.351 -225.334 97.5353 35.0795 65.5234 -367.128 608.972
3161 2 32.7745 -83.1651 -16.2922 99.0658 -171.452 79.9361 -33.1729 -6.98321 -40.7725 -87.2576 277.138
338 1 34.561 -83.064 -19.9573 -208.712 316.98 -134.837 44.161 54.0887 72.4577 -356.26 522.831
22476 2 29.9014 -82.8011 -19.1773 57.3957 -152.814 109.534 27.0241 -20.2924 17.0852 -93.6003 249.335
2744 2 30.2029 -82.4845 -15.9383 51.6226 -162.613 80.0539 -11.7656 -3.6072 -54.722 -96.3362 249.467
5451 1 31.7201 -81.9465 -16.2775 -145.161 302.748 -164.311 15.1415 0.0210233 84.1887 -352.883 481.163