ITEM: TIMESTEP
220000
ITEM: NUMBER OF ATOMS
29952
ITEM: BOX BOUNDS pp pp pp
-2.5615833775063237e+01 3.5601128117061187e+01
-6.8780950154171933e+01 7.8766244488370660e+01
-2.1035324467156940e+01 3.4903177627851115e+01
ITEM: ATOMS id type x y z v_StrAtomXX v_StrAtomYY v_StrAtomZZ v_StrAtomXY v_StrAtomXZ v_StrAtomYZ c_PEAtom v_VMS
1 1 -24.6207 -64.3897 -19.5004 871.169 1134.69 673.332 -35.3332 -7.20665 149.601 -845.591 481.412
2 1 -22.033 -67.3739 -16.0095 999.809 1386.15 1035.4 55.7463 -80.1194 47.1716 -822.604 414.77
3 1 -22.039 -64.5459 -17.7512 986.889 1034.08 1095.48 -4.90555 -250.292 67.516 -848.862 458.889
6 2 -20.6003 -64.4953 -18.6158 -58.9401 -529.863 -325.634 77.9747 -316.925 -80.6702 -234.642 711.611
7 2 -24.72 -65.8183 -20.3554 -659.392 226.915 -510.597 32.0698 15.7331 78.4294 -244.808 835.514
8 2 -22.1297 -65.9532 -16.9401 -551.644 211.285 -405.761 70.2395 -33.4233 -293.728 -243.832 876.941
9 2 -23.2056 -64.5081 -18.801 -740.302 -715.221 -612.998 -33.0706 3.57643 -70.5318 -234.946 178.566
10 2 -23.1144 -67.2796 -14.8167 -478.191 -562.498 -192.26 -44.7307 -125.772 46.4803 -256.436 415.824
12 2 -22.1806 -63.1953 -16.8653 -521.398 164.483 -492.234 -51.4957 -20.4026 163.948 -247.492 735.61
107 2 -24.67 -62.9703 -20.249 -592.591 29.0635 -455.268 53.4434 12.8712 -153.059 -253.38 631.895
2497 1 -19.0569 -64.4624 -19.207 1117 1064.27 1024.58 112.648 -80.6238 -15.0901 -846.873 254.362
2501 2 -20.5322 -67.3922 -15.4506 -183.717 -646.099 -415.526 -61.581 159.378 -92.6 -247.18 523.119
2503 2 -18.9249 -65.9023 -19.9431 -678.284 174.999 -643.197 -11.0429 11.3747 8.97057 -241.548 836.887
2603 2 -18.8055 -63.0837 -20.0554 -512.221 134.223 -462.573 -1.4707 0.564807 -160.615 -246.426 682.392
2512 1 -19.3598 -67.5388 -14.3088 830.026 1292.61 1139.88 -10.1548 79.3669 -9.64213 -830.195 431.449
2500 1 -18.9963 -67.3432 -20.742 1051.35 1204.93 958.011 -3.54159 -96.7848 102.252 -840.011 325.793
5 2 -25.5984 -67.3864 -14.383 -453.57 -612.518 -293.274 -35.6074 253.864 -42.5719 -239.496 528.223
2507 2 -18.8297 -68.7712 -19.9888 -540.424 38.3618 -475.757 52.7376 -42.8055 -132.281 -253.241 606.698
11 2 -24.6178 -68.763 -20.4029 -580.087 376.05 -411.429 -56.006 25.4632 -236.907 -239.41 980.364
2506 2 -17.9068 -67.6315 -14.9191 -248.654 -670.332 -435.762 145.837 -157.52 -79.0762 -244.193 539.374
2505 2 -17.9746 -64.5188 -18.028 -361.067 -626.403 -447.932 -56.4322 163.145 -47.1095 -239.836 388.537
2498 1 -16.4398 -67.4108 -15.6649 1069.37 1143.22 934.666 80.1989 -31.4033 -27.6072 -830.548 241.012
2499 1 -16.5165 -64.5697 -17.3019 1161.41 1100.55 909.868 72.6398 34.7954 34.5767 -840.226 273.345
2502 2 -15.4273 -64.5976 -18.4497 -619.949 -589.709 -196.316 5.46316 -168.089 -96.0311 -239.742 529.232
2504 2 -16.4878 -66.0013 -16.4613 -614.658 240.846 -509.863 -7.19267 -75.9354 -130.283 -250.469 849.465
2508 2 -16.3194 -63.191 -16.4206 -577.591 180.038 -461.937 62.2253 39.3838 168.815 -248.668 775.577
4993 1 -14.3436 -64.5572 -19.7156 1051.31 1060.54 1038.88 31.3173 -42.279 -70.2573 -835.607 153.191
4994 1 -11.8779 -67.3754 -16.19 1031.88 1217.8 1049.09 -96.3979 54.7416 129.896 -832.137 345.182
4995 1 -11.7654 -64.5155 -17.8477 907.431 1296.58 1027.79 13.1809 -14.0698 39.7609 -837.281 353.468
4999 2 -14.4316 -65.9897 -20.4035 -632.457 29.0645 -620.405 -16.7454 -28.2017 -58.6181 -248.883 665.822
5000 2 -12.0191 -65.9824 -17.059 -550.907 279.506 -449.611 116.468 -63.7216 -242.748 -244.388 919.448
5001 2 -12.961 -64.438 -18.9089 -482.271 -659.134 -459.301 -28.6675 190.342 3.9985 -241.091 383.502
5002 2 -12.7391 -67.2132 -14.8545 -580.143 -528.896 -165.655 42.2817 -158.331 9.36431 -242.968 483.754
5004 2 -11.9747 -63.1239 -16.8848 -541.266 280.089 -325.751 -67.025 -81.6951 307.865 -245.558 928.385
5099 2 -14.5267 -63.1484 -20.5706 -566.493 178.45 -457.148 -10.5914 -34.4751 -129.653 -253.582 734.691
4997 2 -15.2588 -67.2148 -14.5796 -568.785 -671.808 -380.069 -45.4263 112.408 22.1466 -245.351 333.524
7493 2 -10.3501 -67.4459 -15.6094 -399.691 -587.376 -419.913 37.6779 198.295 -40.7984 -243.714 398.816
98 1 -22.0009 -61.7644 -16.0211 1190.28 1214.99 1057.63 107.923 -13.9362 15.751 -838.226 240.318
103 2 -24.6315 -60.148 -20.4326 -505.622 524.426 -363.424 -4.22748 2.55569 356.266 -247.216 1147
104 2 -22.0605 -60.3386 -16.8241 -559.526 400.84 -398.804 57.7051 -41.509 -257.661 -248.065 1004.05
106 2 -23.0348 -61.7883 -14.7664 -475.682 -619.121 -203.596 -38.1189 -183.842 3.34651 -241.929 489.305
2597 2 -20.4863 -61.7467 -15.3524 -276.121 -664.207 -404.251 69.1066 245.411 113.891 -232.987 592.64
2599 2 -18.832 -60.2888 -19.8274 -559.26 128.132 -441.826 -44.9008 -23.3245 192.172 -250.422 723.91
2596 1 -18.9458 -61.606 -20.7987 813.01 1172.9 897.712 -38.399 -30.4177 -0.869597 -842.949 336.767
2608 1 -19.3354 -61.7062 -14.2195 885.013 1298.38 1089.58 12.7883 0.768601 161.778 -844.62 455.154
97 1 -24.5627 -58.7191 -19.5639 1096.01 1295.82 899.186 -34.0153 89.3417 -19.8866 -829.369 382.88
99 1 -21.9767 -58.8587 -17.6733 890.295 1336.28 1133.29 -28.2148 -86.2435 -7.22304 -830.127 417.655
102 2 -20.5454 -58.8637 -18.4382 -230.102 -559.164 -393.033 -3.86711 -293.729 9.67028 -245.821 583.412
105 2 -23.1068 -58.7866 -18.7745 -438.811 -581.562 -337.681 -75.4848 216.263 -87.9977 -245.844 475.053
108 2 -22.1193 -57.4234 -16.8012 -514.388 411.737 -441.416 -66.6278 -37.965 203.056 -250.89 967.878
2593 1 -19.033 -58.8604 -19.0534 1031.1 1209.31 1113.59 126.597 -71.6193 -80.2666 -833.577 326.588
2699 2 -18.8221 -57.4265 -19.8982 -561.051 82.3023 -652.815 -33.7673 -20.5275 13.1095 -245.952 697.54
203 2 -24.6916 -57.2343 -20.2921 -560.132 277.28 -506.075 10.0559 20.4203 -56.8325 -254.575 818.632
2602 2 -17.913 -61.7613 -14.9188 -542.904 -642.141 -494.771 -102.329 -145.947 72.727 -239.596 357.944
27558 2 -25.6686 -58.8304 -18.4404 -470.897 -647.913 -233.048 22.9003 -135.266 -12.2639 -245.123 432.348
2601 2 -17.9716 -58.7612 -17.8327 -616.082 -693.948 -444.377 -54.1791 169.27 6.99651 -238.371 379.244
2594 1 -16.4545 -61.7822 -15.5914 899.832 1156.33 1060.51 -65.9146 25.4182 -15.7206 -839.432 257.119
2600 2 -16.4389 -60.3465 -16.4244 -558.326 291.893 -480.521 -64.9955 72.0257 -151.803 -248.487 871.862
5090 1 -11.7763 -61.6984 -16.0846 1168.02 1129.75 1063.5 96.0498 49.8172 66.5323 -834.54 238.309
5095 2 -14.4544 -60.2817 -20.4392 -594.331 328.91 -435.017 -45.6561 -32.1167 222.39 -240.641 942.544
5096 2 -11.8601 -60.3315 -16.9656 -590.545 235.279 -477.672 -32.7208 -8.19519 -177.47 -251.501 836.31
5098 2 -12.8046 -61.6172 -14.8088 -559.7 -601.6 -153.453 -8.47364 -139.461 -71.4652 -248.901 507.641
5093 2 -15.3705 -61.7773 -14.4101 -424.741 -622.106 -311.967 11.037 160.087 -27.8495 -243.308 391.797
2595 1 -16.5578 -58.8683 -17.1528 876.963 1206.9 997.446 21.9829 -208.338 -43.4151 -838.295 470.047
2598 2 -15.5262 -58.8549 -18.4416 -492.679 -613.95 -87.6982 8.33438 -167.79 4.42693 -240.412 559.067
2604 2 -16.4363 -57.453 -16.3562 -590.89 244.808 -580.944 -155.879 -148.044 59.8408 -249.516 916.279
5089 1 -14.38 -58.8449 -19.6016 1039.53 1122.52 831.154 10.6962 -139.297 99.1004 -843.339 394.487
5091 1 -11.8049 -58.8734 -17.7539 925.288 1231.91 1053.79 -47.0996 85.0259 16.4915 -829.437 316.682
5097 2 -12.9801 -58.8286 -18.864 -588.624 -684.711 -373.401 60.6948 96.8404 21.0539 -243.792 341.686
5100 2 -11.8614 -57.4415 -16.895 -592.078 92.3038 -461.593 39.5254 5.74372 104.687 -256.631 658.61
5195 2 -14.4179 -57.4525 -20.3877 -648.072 25.185 -550.104 88.24 -27.387 -4.33923 -248.336 650.062
7589 2 -10.2997 -61.6883 -15.3384 -316.56 -614.027 -317.998 0.0922435 233.271 13.7024 -239.072 501.867
2692 1 -18.9917 -56.0053 -20.5726 924.715 1023.79 850.948 44.5194 -73.7179 149.886 -847.677 334.98
193 1 -24.4613 -52.96 -19.492 1171.86 982.445 943.165 12.5605 73.3956 33.1542 -832.21 254.545
194 1 -22.0311 -55.9509 -16.0402 1090.95 1220.47 891.216 25.5832 -76.1457 24.5175 -827.505 322.023
195 1 -21.8996 -53.0826 -17.5344 958.672 981.97 949.215 -34.7032 -27.1347 -85.1968 -836.107 168.671
198 2 -20.4329 -53.1482 -18.2219 -505.408 -583.722 -351.752 -11.2454 -300.09 33.7247 -244.024 561.899
199 2 -24.4841 -54.3298 -20.352 -579.391 107.673 -513.19 -20.0762 -52.1459 70.3819 -253.261 674.672
200 2 -22.1295 -54.5285 -16.7898 -588.702 86.4412 -547.129 87.9622 -33.2413 -0.441231 -253.808 675.283
201 2 -22.9977 -52.9792 -18.68 -273.847 -631.973 -456.28 -8.26928 144.728 -23.9487 -240.097 401.205
202 2 -23.1426 -55.9739 -14.8387 -447.904 -667.71 -258.736 -11.3436 -74.8542 26.3981 -248.163 380.744
204 2 -22.0816 -51.7431 -16.6703 -619.835 -105.183 -660.233 -86.942 -84.8376 -33.5032 -251.292 578.728
299 2 -24.5347 -51.5737 -20.3224 -584.23 -33.1009 -520.613 -55.6556 41.2392 -97.7976 -249.129 561.976
2689 1 -19.0212 -53.1148 -18.9928 861.861 1265.04 1090.9 -0.0580583 -70.5612 54.0112 -833.096 382.563
2693 2 -20.5658 -55.9089 -15.3136 -397.104 -645.302 -401.033 46.2142 166.206 62.1364 -242.762 401.878
2695 2 -18.8313 -54.5966 -19.7304 -488.78 264.175 -517.632 52.8953 85.6137 87.8349 -250.224 801.889
2795 2 -18.8742 -51.7159 -19.8398 -523.642 252.124 -459.686 24.1452 20.0851 -182.794 -251.826 812.089
2704 1 -19.4529 -55.8806 -14.1688 816.695 1096.17 1079.27 28.1908 -24.053 32.6968 -840.557 284.595
293 2 -25.6307 -50.3305 -14.3524 -746.608 -660.353 -456.685 43.7193 92.0036 39.623 -247.016 319.884
2697 2 -17.9701 -53.0147 -17.7555 -619.009 -645.36 -305.003 -69.1807 186.627 -31.3249 -238.333 478.914
298 2 -23.1727 -50.3425 -14.786 -535.038 -651.23 -277.058 15.9838 -119.475 11.7395 -238.393 392.47
2698 2 -18.0133 -55.8738 -14.8696 -488.105 -636.678 -453.071 -135.748 -128.782 87.1671 -245.995 395.396
2690 1 -16.5871 -56.0092 -15.5718 918.834 1172.91 944.14 4.87446 23.5249 71.3896 -836.188 275.295
2691 1 -16.5524 -53.1416 -17.0261 1050.88 1162.89 997.33 -41.4025 -104.868 48.1598 -833.384 257.882
2694 2 -15.4465 -53.1137 -18.2676 -288.719 -597.392 -68.0701 18.0697 -290.511 16.0857 -245.664 683.388
2696 2 -16.3905 -54.5516 -16.2764 -599.452 75.698 -622.563 12.2911 21.2753 37.9029 -252.399 691.437
2700 2 -16.4445 -51.6834 -16.2159 -655.399 82.0805 -574.215 -34.4291 -29.7313 57.3118 -244.377 711.799
5185 1 -14.3248 -53.1376 -19.4606 1065.34 1296.27 1078.09 -46.6097 -92.1936 61.7606 -831.1 306.606
5186 1 -11.775 -56.1093 -16.0445 1141.78 1155.58 722.468 -38.871 56.9688 -89.834 -831.702 469.338
5187 1 -11.7892 -53.2347 -17.621 834.454 1245.3 1092.26 -58.3231 -50.8917 182.025 -833.946 496.699
5191 2 -14.3505 -54.5914 -20.3015 -528.208 320.087 -376.32 -99.6124 -86.5949 253.784 -246.618 926.99
5192 2 -11.9425 -54.6036 -16.8168 -585.417 156.996 -484.861 -39.2282 34.8631 -127.58 -248.029 737.378
5193 2 -12.8656 -53.1019 -18.7857 -421.02 -609.13 -449.699 -38.5415 110.39 -94.042 -248.258 313.623
5194 2 -12.9134 -56.0534 -14.9363 -647.907 -676.554 -393.977 -86.4223 4.99257 101.662 -249.767 355.052
5196 2 -11.9114 -51.7283 -16.7339 -505.827 516.348 -406.333 67.4218 13.7624 275.678 -235.009 1093.27
5291 2 -14.5045 -51.7485 -20.3869 -511.348 293.221 -403.31 64.387 -60.1988 -270.911 -243.97 903.087
5189 2 -15.3866 -56.037 -14.4939 -462.14 -748.002 -469.082 73.6605 150.934 57.2963 -237.545 417.434
5285 2 -15.3388 -50.1455 -14.412 -549.293 -640.345 -491.905 38.1047 103.507 60.1542 -239.693 253.302
7685 2 -10.303 -56.0008 -15.3413 -331.479 -665.732 -291.524 90.3563 193.569 -14.0109 -238.974 513.97
2786 1 -16.5887 -50.2911 -15.4584 896.001 985.06 1037.82 84.6647 87.5094 -69.4437 -843.563 272.687
5290 2 -12.8193 -50.1736 -14.8089 -451.294 -652.251 -332.413 17.433 -192.638 -13.1383 -233.225 437.224
5282 1 -11.7189 -50.2341 -15.9825 1075.46 1201.63 966.174 0.676953 23.3404 130.607 -842.669 307.345
2615 2 -19.5132 -63.1393 -13.4757 -624.202 214.287 -642.904 22.3829 -14.4227 -2.84957 -243.692 849.262
16 1 -24.1583 -67.387 -13.6044 1032.66 1062.5 939.858 -19.7601 21.39 10.188 -832.324 122.991
13 1 -24.1793 -64.6253 -11.902 1026.78 1217.46 1031.39 105.958 -27.014 -164.158 -839.321 390.145
14 1 -21.5473 -67.302 -8.49046 896.781 1139.44 1010.18 126.961 -145.302 -128.928 -841.31 453.638
15 1 -21.471 -64.5767 -10.2735 966.155 1027.66 932.563 -35.8909 -21.7865 -10.5668 -846.26 112.255
18 2 -20.5409 -64.6801 -11.5835 -517.668 -610.072 -217.256 0.754333 -156.067 103.917 -235.142 481.678
19 2 -24.1636 -66.0451 -12.6787 -602.665 42.7073 -478.233 -55.6308 -46.634 134.609 -251.956 649.5
20 2 -21.2541 -65.9566 -9.46936 -555.554 137.059 -497.945 11.3634 3.96418 -173.452 -244.941 730.632
21 2 -22.9551 -64.5608 -10.8752 -534.846 -640.997 -495.662 23.2452 172.09 66.823 -239.777 347.599
22 2 -23.0745 -67.1557 -7.93577 -199.935 -629.35 -404.783 43.1533 -211.902 -22.1701 -241.007 529.306
24 2 -21.2971 -63.1632 -9.49076 -558.186 106.742 -447.219 -113.55 -99.3484 152.466 -252.105 720.198
119 2 -24.0254 -63.1613 -12.7827 -583.664 444.203 -438.886 -27.8434 9.88269 -232.54 -239.003 1045.71
2509 1 -19.3751 -64.6184 -12.7636 1051.81 1105.63 1027.21 -34.6914 -147.286 -58.5849 -843.369 289.504
2515 2 -19.4327 -66.0063 -13.5968 -577.441 306 -602.982 -9.93701 -40.3364 102.526 -243.766 916.732
28 1 -24.5248 -67.306 -7.21813 1153.16 1211.72 1060.03 -110.608 50.6497 100.055 -841.219 303.297
2513 2 -20.5412 -67.2975 -7.28648 -560.965 -655.424 -544.21 -149.163 37.558 -76.7055 -243.412 315.306
2517 2 -17.9885 -64.5964 -11.9878 -405.165 -647.292 -446.583 31.281 144.708 65.8115 -242.794 359.253
2519 2 -19.6291 -68.8775 -13.3836 -539.059 158.775 -393.513 -16.855 -14.7617 -217.596 -255.857 741.713
2518 2 -18.0384 -67.2345 -7.88794 -566.662 -613.447 -351.536 31.8744 -48.8275 -5.03175 -247.49 262.315
5008 1 -13.9446 -67.3125 -13.7048 1097.13 1028.19 929.467 62.7888 -137.813 -152.53 -832.71 399.881
2510 1 -16.9832 -67.3246 -9.06304 1017.59 1189.74 892.227 -88.433 70.6373 69.2846 -840.707 346.07
2511 1 -16.8322 -64.5724 -10.8436 934.106 1123.07 1076.28 52.4487 76.3881 -40.8512 -836.033 244.579
2514 2 -15.3499 -64.7261 -11.3885 -530.509 -651.006 -612.119 49.3316 20.4358 -76.1631 -246.693 193.138
2516 2 -17.1376 -65.9727 -9.96523 -594.593 204.315 -485.595 44.9246 -7.12432 -202.419 -242.546 831.975
2520 2 -16.9012 -63.1721 -10.0232 -574.819 66.6721 -449.588 -24.1649 -33.7787 158.625 -252.78 653.849
5005 1 -13.9123 -64.5575 -12.0077 739.917 1165.11 1026.93 36.9168 -3.56801 -65.0121 -833.053 397.41
5006 1 -11.3833 -67.4063 -8.62915 1020.3 1103.67 906.111 -94.5134 99.5518 16.6205 -836.872 294.735
5007 1 -11.3184 -64.569 -10.2492 1001.54 1189.24 976.365 90.7313 1.56033 68.616 -831.161 281.813
5009 2 -15.513 -67.3502 -8.37045 -351.594 -582.333 -432.047 -79.6378 204.189 -99.121 -239.948 463.39
5011 2 -13.7741 -65.9827 -12.8274 -681.908 140.404 -661.575 72.6169 117.755 75.5795 -245.911 856.998
5012 2 -11.1966 -65.9585 -9.36433 -658.651 198.299 -495.67 -25.1566 33.6347 -125.476 -246.602 820.844
5013 2 -12.7741 -64.5208 -10.894 -531.603 -565.575 -442.252 -0.0845198 148.052 23.0562 -250.516 282.003
5014 2 -12.8758 -67.3788 -8.09775 -464.225 -571.578 -450.478 35.1151 -112.788 -17.954 -247.213 236.683
5016 2 -11.0005 -63.1112 -9.41739 -454.154 353.465 -458.751 22.2024 60.4517 204.705 -245.75 891.144
5111 2 -13.8373 -63.1116 -12.8309 -583.771 256.427 -417.564 43.0916 -75.7402 -176.368 -253.207 842.619
5020 1 -14.2927 -67.4634 -7.30151 998.556 816.221 1124.21 23.1546 -40.2421 -31.7181 -836.906 285.362
7505 2 -10.2751 -67.4285 -7.41923 -402.378 -685.359 -349.42 17.3456 153.45 -10.362 -239.902 411.988
112 1 -24.1637 -61.7224 -13.6031 1174.3 1189.7 926.919 -4.4053 22.6629 -33.4338 -839.052 264.944
110 1 -21.6024 -61.8215 -8.58649 1042.12 1160.31 1123.43 64.7028 -15.4002 49.4992 -826.049 177.739
115 2 -23.9789 -60.3249 -12.7908 -501.258 298.739 -338.677 18.8435 -1.19924 211.8 -253.399 819.763
116 2 -21.39 -60.3355 -9.34348 -451.346 350.313 -441.368 -15.3648 27.4437 -255.431 -252.787 912.941
118 2 -23.1333 -61.8837 -8.04868 -292.525 -554.991 -433.977 -13.649 -161.936 -54.9152 -253.92 374.228
2611 2 -19.5369 -60.2111 -13.3878 -513.498 485.944 -416.624 -144.617 -79.4241 241.192 -240.133 1080.57
124 1 -24.5323 -61.7264 -7.30608 757.423 1203.77 968.578 80.9138 -63.8386 43.735 -831.017 432.629
2609 2 -20.4907 -61.7892 -7.40294 -271.879 -675.371 -471.705 46.6592 161.419 -18.5262 -243.221 455.892
114 2 -20.6568 -58.8794 -11.4163 -484.716 -625.509 -239.359 88.6762 -140.827 -73.0906 -248.721 462.256
117 2 -23.1897 -58.7944 -10.7829 -341.282 -595.072 -376.352 -49.2302 193.845 -110.62 -250.599 462.003
109 1 -24.2361 -58.848 -11.9814 887.247 1448.13 1019.31 -114.106 -50.4882 51.7648 -829.302 559.199
111 1 -21.6935 -58.9183 -10.148 1107.66 1232.23 1035.02 -187.147 -44.6756 26.5973 -823.321 378.186
120 2 -21.559 -57.4695 -9.33964 -619.621 299.237 -507.048 -5.72766 -46.7167 135.377 -251.749 902.862
215 2 -24.0957 -57.3682 -12.8401 -666.568 415.29 -426.114 -24.3031 68.3961 -236.747 -238.055 1073.34
2605 1 -19.5224 -58.7785 -12.5213 857.604 1422.62 915.697 32.1457 -43.6869 -4.51359 -837.067 546.515
2711 2 -19.5534 -57.3 -13.3502 -521.771 221.882 -394.192 27.8937 -20.5219 -243.612 -245.053 809.976
2613 2 -18.1317 -58.8344 -11.7596 -519.984 -719.579 -514.985 -68.1139 83.6244 -52.2058 -242.21 289.715
2614 2 -17.9174 -61.8675 -7.91831 -382.134 -580.186 -217.328 -46.5967 -193.927 133.237 -243.77 521.171
5104 1 -13.9124 -61.7084 -13.6719 1126.16 1283.38 798.787 56.1786 -17.9748 69.1956 -830.751 456.248
2606 1 -16.852 -61.7909 -9.15092 1068.35 1147.39 1019.08 1.03266 -49.3673 -83.8589 -836.923 202.435
2612 2 -17.0661 -60.3382 -9.91328 -587.34 348.933 -492.748 7.92765 -35.5461 -144.218 -247.119 929.175
5102 1 -11.3133 -61.6559 -8.70313 870.433 1140.22 1064 -80.1139 -214.491 -16.5677 -841.608 464.896
5105 2 -15.3804 -61.6967 -8.49327 -297.582 -648.561 -314.462 12.2185 221.457 37.7646 -241.568 519.04
5107 2 -13.8847 -60.2244 -12.8682 -628.528 274.688 -367.492 0.867294 68.4997 225.009 -246.744 902.293
5108 2 -11.2123 -60.2736 -9.55364 -543.745 232.631 -573.927 37.5284 38.3407 -89.9212 -246.943 812.401
5110 2 -12.7621 -61.7257 -7.96452 -547.738 -604.784 -403.604 20.8973 -221.803 -36.2453 -241.472 430.223
5116 1 -14.2136 -61.7495 -7.33489 998.702 1355.79 1001.9 72.3465 81.919 -80.5305 -835.3 426.228
5109 2 -12.8454 -58.7717 -10.8248 -477.358 -633.198 -372.096 55.87 155.13 22.9307 -245.556 367.298
2610 2 -15.5031 -58.9079 -11.4141 -431.818 -643.049 -552.418 -25.0655 -33.6151 -4.52379 -251.287 197.547
2607 1 -16.941 -58.8674 -10.6987 844.257 1274.75 1031.89 21.1821 -41.4696 -1.59613 -829.428 382.45
2616 2 -17.0715 -57.4206 -9.88771 -559.427 236.386 -522.481 -87.5696 -73.9117 77.111 -255.39 813.949
5101 1 -14.0548 -58.8474 -11.9924 860.381 1224.49 1182.55 56.4953 188.477 -29.2933 -831.083 487.631
5103 1 -11.4023 -58.7828 -10.29 745.004 1176.34 879.983 -110.645 -207.1 -27.1296 -837.116 560.047
5112 2 -11.2069 -57.4002 -9.46706 -592.013 3.03251 -535.935 2.18802 -23.3617 70.6464 -251.724 583.506
5207 2 -13.9003 -57.4224 -12.8777 -526.307 387.705 -331.249 44.5115 -56.0596 -349.406 -241.039 1037.69
5106 2 -10.3385 -58.8389 -11.5091 -464.718 -659.49 -403.333 4.3354 -36.5821 47.9347 -243.483 254.214
27666 2 -25.8025 -53.0979 -11.3999 -414.475 -610.584 -420.474 40.8262 -169.37 7.98537 -250.318 358.564
2807 2 -19.7393 -51.7057 -13.2803 -582.747 -21.6843 -564.12 69.4238 -39.059 -26.8834 -254.555 570.869
208 1 -24.2087 -55.9319 -13.6542 948.668 1182.45 787.014 17.8996 -135.703 -50.8497 -839.658 427.253
205 1 -24.3393 -53.093 -12.0767 972.505 971.823 1036.86 -77.3381 38.0469 17.4403 -827.09 165.484
206 1 -21.6753 -56.0888 -8.48199 941.447 1198.76 1069.79 42.8504 19.975 7.00047 -832.24 237.719
207 1 -21.7815 -53.2091 -10.0823 1151.49 1145.01 1053.08 82.5456 60.3157 33.1702 -822.677 209.154
210 2 -20.6745 -53.0593 -11.2483 -468.296 -616.003 -264.486 15.8857 -143.112 -33.8505 -249.625 398.871
211 2 -24.0938 -54.5139 -12.8537 -594.145 131.956 -594.306 -122.642 -98.323 62.4344 -248.467 783.045
212 2 -21.5174 -54.5733 -9.19427 -510.928 321.418 -409.771 -56.7302 27.497 -209.177 -252.532 872.94
213 2 -23.2233 -53.2561 -10.8613 -247.749 -545.962 -252.485 -108.85 324.927 -140.865 -244.8 706.645
214 2 -23.1157 -56.085 -7.77904 -398.125 -605.517 -479.94 -3.16103 -140.917 -13.3634 -245.899 304.756
216 2 -21.6913 -51.7684 -9.21188 -560.817 9.53882 -499.668 35.4639 87.8436 36.1377 -254.577 570.095
311 2 -24.1856 -51.6936 -12.807 -613.959 -272.192 -687.547 4.03157 13.1996 167.916 -260.953 482.213
2701 1 -19.5968 -53.0755 -12.4515 907.291 1184.24 843.511 -40.863 -73.9947 88.9494 -831.077 378.947
2705 2 -20.4876 -56.089 -7.37001 -185.79 -596.423 -342.444 84.3347 233.773 64.4105 -242.883 571.459
2707 2 -19.6545 -54.5629 -13.2176 -547.568 136.636 -398.26 -113.732 -77.1557 172.463 -247.985 730.866
220 1 -24.6295 -56.0678 -7.22789 1003.23 916.883 987.149 -1.47771 -15.0796 53.751 -842.54 125.23
2710 2 -17.883 -55.9279 -7.86555 -444.714 -637.797 -240.331 -58.8616 -129.833 104.647 -248.209 460.797
2801 2 -20.6542 -50.1584 -7.44254 -290.4 -618.044 -440.055 -5.21713 236.798 25.8323 -232.933 501.016
302 1 -21.8602 -50.3642 -8.533 856.613 1010.31 908.666 75.1045 80.5086 -22.1496 -841.221 237.003
2709 2 -18.1462 -53.1264 -11.8024 -313.742 -698.417 -444.221 -86.8606 138.995 -96.8831 -246.051 472.82
5200 1 -13.9624 -55.9576 -13.7673 833.721 1432.03 940.353 55.5984 52.9363 -39.0409 -832.675 572.539
2702 1 -16.8865 -56.0112 -9.1254 1099.78 1231.38 897.495 55.1762 3.87217 -55.5481 -830.998 321.394
2703 1 -16.9075 -53.1195 -10.743 1219.96 1200.93 1070.27 40.7274 -7.55726 5.55012 -830.798 158.617
2706 2 -15.3749 -53.0546 -11.395 -80.1052 -634.287 -468.381 -10.8009 -191.516 9.46906 -239.918 594.436
2708 2 -16.9835 -54.5143 -9.88077 -596.961 339.006 -425.233 -1.48906 -8.52642 -197.284 -250.064 928.322
2712 2 -17.0697 -51.6624 -9.9418 -650.42 102.672 -465.356 -54.909 -65.3504 104.094 -246.987 718.602
5197 1 -13.9299 -53.0908 -12.0976 864.735 1264.44 1167.13 14.6051 -16.158 30.5061 -840.935 366.815
5198 1 -11.3568 -56.0479 -8.58436 845.79 1058.51 1009.25 -52.6375 -115.758 -13.1139 -842.487 293.642
5199 1 -11.3672 -53.1834 -10.1394 1026.07 1099.01 1008.64 8.17009 25.4446 -43.9972 -838.47 121.838
5201 2 -15.3757 -56.0586 -8.46999 -252.737 -631.049 -260.724 -33.377 292.551 -37.3398 -238.881 635.959
5203 2 -13.848 -54.5276 -12.922 -471.367 301.593 -386.736 12.9581 28.8249 230.833 -253.092 837.891
5204 2 -11.2828 -54.6179 -9.37619 -511.76 54.5032 -553.328 21.1854 -3.16249 -81.5541 -250.136 606.012
5205 2 -12.8293 -53.0664 -10.9044 -408.727 -560.378 -220.789 -9.70842 337.13 20.0331 -238.356 655.193
5206 2 -12.7871 -56.109 -7.83081 -334.632 -620.47 -483.148 -7.64859 -183.427 33.3676 -237.44 407.138
5208 2 -11.1807 -51.8318 -9.21691 -486.259 198.62 -493.657 -21.6327 7.66805 193.146 -250.283 766.6
5303 2 -13.8641 -51.6377 -12.9008 -565.859 211.146 -590.498 -69.2776 56.4588 -77.5607 -244.596 815.78
5212 1 -14.2977 -56.1053 -7.23303 1018.25 1132.01 1116.72 -34.6654 28.5518 -9.15651 -842.583 133.181
5202 2 -10.3298 -53.1447 -11.341 -454.936 -637.397 -297.084 -23.2608 -110.756 58.8971 -239.972 368.567
7697 2 -10.2466 -55.9865 -7.46076 -566.179 -636.494 -370.729 73.7583 174.628 55.1281 -241.116 416.906
29 2 -25.6125 -67.3918 -0.411019 -555.25 -636.136 -424.719 26.3278 213.173 37.4967 -247.933 420.433
2436 2 -22.1505 -68.7105 -2.91342 -556.897 97.5702 -514.33 6.90266 30.8953 128.165 -240.687 674.215
2531 2 -18.8728 -68.7959 -5.87348 -569.865 72.2259 -430.725 -41.2867 7.97309 -145.014 -254.169 640.852
2524 1 -19.0689 -67.3761 -6.64899 1005.21 1124.59 925.338 54.3864 -78.2141 -4.99883 -835.4 239.723
25 1 -24.662 -64.4409 -5.55952 933.124 1186.86 907.638 9.96396 62.4311 169.483 -838.584 411.9
26 1 -21.9062 -67.3435 -2.0789 953.753 1192.64 900.012 65.1406 -158.352 -34.2538 -843.131 405.302
27 1 -22.0449 -64.5171 -3.8204 789.305 1348.48 1023.52 68.2443 -91.6461 63.4314 -837.422 536.476
30 2 -20.6017 -64.4269 -4.49958 -393.991 -659.199 -494.398 34.5635 -68.4954 -67.585 -245.401 291.805
31 2 -24.817 -65.8836 -6.39081 -556.818 392.356 -508.435 -87.2032 -76.9433 153.62 -242.876 984.235
32 2 -22.1227 -65.9205 -2.92885 -526.606 194.494 -340.347 -83.3262 18.819 -271.333 -244.066 814.324
33 2 -23.2116 -64.4923 -4.86838 -568.069 -641.383 -497.025 -33.6583 96.374 -39.1918 -245.676 226.939
34 2 -23.0859 -67.3875 -0.935092 -203.824 -649.595 -240.053 14.1177 -270.607 -68.3455 -236.694 646.661
36 2 -22.1422 -63.0537 -2.93989 -589.065 161.482 -481.976 -12.2294 4.69498 92.9969 -241.417 721.716
131 2 -24.7814 -63.0367 -6.33507 -550.886 64.1839 -567.36 79.7337 -69.7753 -119.38 -250.743 682.018
2521 1 -19.1049 -64.5009 -5.05648 909.706 1283.67 963.689 44.3709 -46.5589 16.9292 -843.206 368.568
2525 2 -20.5109 -67.3007 -1.39107 -656.309 -633.392 -432.063 29.4026 80.6257 -7.08157 -249.929 260.611
2527 2 -18.9845 -65.9744 -5.79188 -649.946 217.65 -571.357 -80.9483 -59.7099 91.2344 -241.521 863.736
2627 2 -18.83 -63.0728 -5.86574 -612.108 158.908 -583.445 50.8181 30.3849 -109.318 -243.402 787.118
2536 1 -19.3573 -67.3258 -0.282203 980.844 1065.59 1062.2 -134.884 -189.652 139.345 -829.371 477.118
7428 2 -11.8041 -68.9068 -2.8755 -575.798 138.303 -424.846 -22.0684 -20.974 145.863 -260.17 701.1
5022 2 -10.3464 -64.6369 -4.40323 -366.598 -605.363 -437.773 -8.91091 -195.423 -8.36814 -246.937 400.124
2530 2 -17.893 -67.4581 -1.07135 -36.0936 -586.527 -458.635 -85.6892 -255.733 84.2593 -235.577 698.9
2529 2 -17.9844 -64.5439 -3.91763 -342.816 -680.749 -453.719 0.58587 218.262 -15.8572 -238.714 482.381
2522 1 -16.356 -67.4668 -1.67733 1022.9 1149.24 1008.63 69.451 -110.625 -129.941 -835.976 346.131
2523 1 -16.4751 -64.5782 -3.30495 1055.39 1141.05 983.753 4.2538 -5.08093 -0.104363 -842.647 136.886
2526 2 -15.5157 -64.6342 -4.59129 -580.113 -632.079 -318.477 -62.0649 -121.677 77.6166 -238.714 398.491
2528 2 -16.2463 -65.9943 -2.51433 -540.803 248.657 -439.81 -77.1675 43.9684 -211.667 -243.747 843.677
2532 2 -16.2246 -63.203 -2.45319 -548.012 90.6218 -511.492 34.332 21.6978 111.788 -249.882 654.447
5017 1 -14.3142 -64.714 -5.67674 1171.48 1093.28 997.095 44.4107 27.3501 -186.492 -840.728 367.95
5018 1 -11.7564 -67.4899 -2.1096 1212.65 1098.22 934.106 -52.8436 -14.173 -86.7203 -823.663 300.582
5019 1 -11.7718 -64.5639 -3.62833 1120.96 1148.78 1068.38 4.25759 75.6652 -39.6973 -829.075 164.194
5023 2 -14.364 -66.1289 -6.39354 -581.8 -184.317 -575.654 26.5393 69.4915 69.148 -251.32 431.893
5024 2 -11.9542 -66.062 -2.93143 -595.472 390.287 -501.064 -8.66124 23.4955 -128.542 -250.367 969.031
5025 2 -12.9757 -64.4687 -4.75547 -357.097 -575.801 -149.153 68.8621 327.964 113.688 -242.098 715.705
5026 2 -12.8743 -67.439 -0.916489 -566.753 -624.028 -212.205 -18.8265 -178.414 69.6239 -246.489 510.286
5028 2 -11.7356 -63.1881 -2.74499 -602.229 230.351 -466.944 21.8871 -6.33949 121.865 -256.884 803.098
5123 2 -14.4306 -63.3235 -6.63663 -554.336 585.732 -376.279 3.2106 -14.0457 -292.766 -236.873 1177.38
5021 2 -15.3194 -67.45 -0.494237 -654.535 -563.4 -370.677 30.24 148.857 73.4327 -251.521 385.237
2620 1 -19.031 -61.7246 -6.73013 1057.93 1076.69 961.689 -160.123 -99.7381 136.037 -841.177 416.773
122 1 -21.9641 -61.633 -2.21822 924.031 1256.43 840.653 -91.7314 -42.2975 -25.4915 -850.434 421.569
127 2 -24.5169 -60.2205 -6.57736 -535.015 200.788 -369.894 -26.7596 -23.4409 197.027 -252.61 753.28
128 2 -22.1867 -60.2065 -3.08814 -492.917 173.896 -380.425 32.7942 21.7792 -279.622 -242.133 788.351
130 2 -22.9793 -61.5544 -0.991544 -445.905 -680.192 -265.793 46.4554 -140.027 -37.796 -238.457 446.219
2621 2 -20.5008 -61.5966 -1.59953 -565.313 -671.602 -407.598 -13.001 183.495 -61.2413 -235.385 407.069
2623 2 -19.0216 -60.2579 -5.98182 -643.1 238.559 -488.834 -6.05253 -52.6561 80.2787 -246.972 832.39
2632 1 -19.3585 -61.5758 -0.451867 829.791 1120.62 1110.07 18.4631 -49.0686 -183.054 -846.366 436.344
227 2 -24.8714 -57.4391 -6.43326 -649.484 15.7423 -579.663 -6.14654 -9.85968 -62.5541 -248.123 642.727
121 1 -24.5359 -58.8493 -5.68162 1207.9 1073.94 1021.47 -57.4126 -62.3565 79.7659 -830 261.47
123 1 -21.9161 -58.8138 -3.93695 828.191 1152.11 1189.38 -58.9906 -92.9743 0.107296 -839.507 393.394
126 2 -20.4369 -58.7779 -4.51101 -427.937 -642.979 -511.282 55.0464 -67.1514 -55.4866 -247.597 259.078
129 2 -23.0191 -58.6727 -5.08762 -206.179 -576.517 -515.352 32.28 133.508 -52.6543 -245.696 427.967
132 2 -22.1723 -57.4653 -2.96188 -504.644 153.955 -446.2 -39.7946 -50.8064 232.759 -243.215 757.432
2617 1 -18.9948 -58.8176 -5.18341 966.935 1302.88 979.81 71.9223 90.1096 15.8062 -839.945 386.424
2723 2 -18.7584 -57.3095 -5.83755 -611.928 311.05 -541.617 19.9666 -0.0713821 -81.0259 -245.282 901.57
2626 2 -17.9428 -61.7457 -1.16729 -587.049 -621.887 -511.822 10.6326 -122.672 10.2409 -242.167 235.143
2625 2 -17.7757 -58.9267 -4.09713 -317.109 -691.987 -302.81 51.1208 317.036 53.6271 -233.27 681.25
2618 1 -16.4502 -61.7723 -1.70209 789.443 1221.29 968.598 -5.82574 -97.0294 -122.164 -839.32 462.965
2624 2 -16.2119 -60.3356 -2.54414 -542.648 471.614 -461.187 35.1161 -4.53114 -225.027 -240.009 1052.81
5114 1 -11.7351 -61.7571 -1.95054 971.06 1200.23 879.834 -81.8577 51.0609 -25.7365 -827.704 334.15
5117 2 -15.4735 -61.7611 -0.458149 -529.398 -607.576 -451.654 -13.9338 94.6375 -31.2264 -248.14 220.477
5119 2 -14.2961 -60.3872 -6.45037 -622.18 218.753 -396.865 112.128 105.41 151.109 -253.84 841.435
5120 2 -11.9403 -60.2924 -2.79195 -526.238 311.206 -500.724 -34.4834 51.851 -156.769 -252.83 875.191
5122 2 -12.8973 -61.7362 -0.872039 -468.141 -618.891 -351.183 -16.6043 -143.73 36.8639 -248.71 347.729
5219 2 -14.3932 -57.5001 -6.4208 -620.494 211.956 -491.512 -181.577 154.805 -118.213 -246.218 902.755
2619 1 -16.3283 -58.8248 -3.33314 970.475 1410.4 940.31 36.4058 79.2672 10.8166 -838.822 480.512
2622 2 -15.3002 -58.8915 -4.51629 -568.848 -723.459 -378.504 -110.658 -29.2519 145.942 -244.348 439.049
2628 2 -16.2949 -57.4148 -2.47181 -521.482 356.686 -401.737 -133.41 -68.104 218.89 -248.21 944.145
5113 1 -14.1322 -58.9586 -5.63453 1317.23 1320.18 802.685 1.12149 -2.22841 20.5169 -829.331 517.266
5115 1 -11.684 -58.9246 -3.60033 992.359 1122.62 1118.55 -93.7819 -82.0442 21.9987 -834.651 253.938
5121 2 -12.6525 -58.8854 -4.91073 -306.92 -633.873 -217.193 33.2919 261.753 -57.9536 -240.786 602.686