ITEM: TIMESTEP
720000
ITEM: NUMBER OF ATOMS
29952
ITEM: BOX BOUNDS pp pp pp
-2.5615833775063237e+01 3.5601128117061187e+01
-8.5396625226530290e+01 9.5381919560729031e+01
-2.1035324467156940e+01 3.4903177627851115e+01
ITEM: ATOMS id type x y z v_StrAtomXX v_StrAtomYY v_StrAtomZZ v_StrAtomXY v_StrAtomXZ v_StrAtomYZ c_PEAtom v_VMS
4896 2 -16.2139 -70.5964 -17.6906 -332.984 -68.3774 -579.745 -3.55685 39.6987 -74.3536 -169.147 466.426
2400 2 -19.531 -67.0296 -18.1217 215.043 -420.868 -408.107 -230.172 319.465 -112.837 -272.518 948.545
4901 2 -20.9731 -66.9143 -14.7541 69.5572 -565.052 -528.901 -120.9 196.585 -117.121 -276.96 762.911
2316 2 -22.0101 -66.7999 -17.1913 -381.282 -519.313 -203.302 -82.4906 -261.501 -26.6963 -273.562 550.452
2494 2 -21.9974 -66.7441 -19.8989 87.852 -549.792 29.192 14.9039 714.742 -149.557 -257.233 1404.62
2410 2 -23.649 -66.5144 -15.008 176.818 -348.884 -567.427 -207.014 -191.356 -99.957 -290.537 841.072
2486 1 -21.1351 -66.4755 -18.5013 1260 806.536 1116.88 -59.3047 79.6656 -40.8326 -773.846 442.501
2402 1 -22.2259 -66.3373 -15.6358 395.095 911.399 1318.19 294.126 254.979 216.637 -770.48 1112.4
2407 2 -23.7092 -65.049 -19.7567 -603.351 -478.21 -246.661 -3.76881 -211.64 160.685 -269.41 556.892
4985 2 -20.8558 -64.8776 -18.6004 -571.911 -543.099 -728.786 13.6884 -93.2937 -106.781 -275.688 301.396
2408 2 -21.795 -64.7427 -15.7593 -318.333 -303.028 -764.317 25.5108 -170.722 -61.0609 -274.796 553.658
2401 1 -24.5056 -64.0916 -18.6993 886.102 858.636 754.797 -61.4543 73.7469 237.89 -779.55 460.227
2409 2 -23.5703 -64.0067 -17.356 -525.825 -544.977 -453.359 2.03105 -3.59599 -186.203 -283.627 333.274
4897 1 -20.3225 -63.4356 -18.4272 639.803 619.658 1260.53 -157.06 290.321 408.103 -777.867 1106.67
2403 1 -22.4819 -63.4674 -16.3945 830.936 624.853 971.371 50.5297 -65.1654 -6.47732 -773.482 334.154
4905 2 -18.7796 -63.3681 -17.9457 -130.474 -532.594 -541.693 99.2418 100.084 -100.349 -277.168 505.222
4912 1 -19.4658 -66.7309 -14.2692 409.394 834.869 1274.77 379.463 119.775 68.4638 -757.616 1025.08
2416 1 -25.1916 -66.1183 -14.5325 642.027 1084.98 1242.18 -373.267 -107.093 133.036 -744.704 892.209
4904 2 -18.4786 -66.931 -15.6752 -48.4963 -515.442 -465.833 -439.254 75.1852 49.9401 -304.81 894.767
4900 1 -18.157 -66.9409 -17.3179 863.056 653.102 991.382 68.7936 -184.688 468.569 -771.139 928.81
2459 2 -25.4744 -66.4638 5.57693 -392.032 -624.951 -299.434 24.7668 204.186 79.9165 -229.001 480.073
4934 1 -16.9357 -67.2444 5.30918 986.311 1236.45 1077.5 248.72 48.9906 33.1309 -860.654 494.12
7392 2 -12.1507 -70.2065 -14.9087 225.329 -488.285 -972.283 -134.288 191.915 32.3048 -270.822 1120.99
4982 1 -16.0658 -69.3894 -16.8438 975.874 396.592 1525.86 200.522 -31.3299 -141.703 -817.967 1067.92
4812 2 -16.8747 -69.1936 -15.3972 -426.994 -199.667 -770.337 -236.658 -141.12 185.624 -259.031 760.755
7396 1 -13.2942 -69.1581 -15.2964 348.296 217.144 2084.39 70.2288 -95.8464 -53.8607 -732.731 1819.33
7481 2 -14.4978 -69.0625 -16.3221 159.349 -148.826 -790.732 -109.522 377.628 -141.071 -278.894 1108.3
4903 2 -17.5697 -65.4995 -17.54 -516.739 -413.766 -698.446 115.52 -44.1782 -200.123 -272.501 477.88
7486 2 -11.8782 -68.2331 -15.7524 44.8793 -142.17 -1121.41 -178.337 65.7006 -94.8516 -305.049 1145.61
4990 2 -16.9655 -68.0484 -17.449 76.9678 -203.351 -684.571 -465.999 182.446 -78.3178 -256.487 1102.17
4898 1 -17.2048 -67.8532 -14.6443 380.185 823.476 1296.1 354.335 -25.1056 44.5215 -734.239 1006.92
7394 1 -11.8114 -66.5546 -15.5282 884.601 277.935 1443.33 -45.9606 -102.42 420.769 -753.662 1260.21
7402 2 -13.1173 -66.2913 -14.5901 150.998 -489.699 -819.95 -6.03902 -135.346 111.741 -275.552 907.564
7400 2 -12.1611 -65.7133 -16.8086 -480.172 -87.0536 -651.227 -130.348 263.032 -377.502 -276.585 968.039
7401 2 -13.9217 -64.5884 -18.6621 -61.3905 -486.16 -133.816 18.124 402.169 -185.596 -278.101 862.818
7398 2 -11.2877 -64.3879 -18.8511 -165.077 -681.057 -456.137 -120.524 -184.238 -77.6196 -270.729 603.534
7395 1 -12.5214 -64.4266 -17.7417 976.724 921.462 1088.88 51.1277 -67.0401 455.985 -777.465 816.652
7393 1 -14.9519 -63.8623 -19.6535 658.173 973.087 958.093 22.2681 27.002 431.505 -761.113 810.517
4899 1 -17.2948 -63.9145 -17.6208 623.566 702.956 968.811 -113.891 147.238 -1.88324 -779.523 449.499
4908 2 -16.8578 -63.3564 -16.194 -485.199 -450.949 -560.117 -27.0834 -59.8102 71.6203 -271.447 194.094
7404 2 -12.5689 -63.1366 -16.7875 -384.965 -87.8755 -222.497 21.8915 47.2019 283.457 -274.092 561.743
4902 2 -16.2455 -63.5289 -18.7349 -326.669 -542.653 -471.163 23.802 -201.076 -121.924 -280.222 451.563
7397 2 -15.9089 -67.0275 -14.3786 253.799 -528.644 -588.174 116.352 197.611 -86.8001 -285.9 917.99
7399 2 -13.8456 -68.4347 -13.9179 -472.137 -209.462 -504.341 -214.822 -308.525 357.878 -268.194 941.666
7478 1 -10.7977 -69.3759 -14.8985 453.276 232.349 2228.03 57.8195 -183.327 172.958 -727.635 1947.11
9893 2 -10.2934 -66.4973 -14.9746 58.8217 -353.912 -680.153 -279.523 232.685 -45.0537 -274.703 902.413
4906 2 -18.4521 -67.7771 -13.6363 81.3505 -527.354 -908.953 -167.613 -127.223 28.3866 -263.71 940.041
4915 2 -19.2575 -65.3847 -13.4276 -558.316 -149.152 -234.047 42.9233 -30.7564 397.564 -265.115 788.938
2419 2 -25.1947 -65.1135 -13.2634 -442.573 -515.109 86.666 16.7053 65.4534 239.326 -271.626 713.628
2422 2 -23.8115 -66.4038 -7.74834 104.528 -353.987 -782.041 -41.0503 -105.465 -36.7703 -257.742 795.12
2414 1 -22.2382 -66.2594 -7.96278 841.882 1134.3 943.058 -161.204 37.0215 42.7296 -811.618 392.059
2328 2 -22.0505 -65.9561 -9.53153 -653.406 -368.04 -145.085 -24.3798 -42.1104 -329.236 -251.039 725.988
2415 1 -21.9821 -64.624 -10.4847 988.473 1295.32 846.206 -27.1674 75.6583 122.185 -820.555 471.409
2421 2 -23.2776 -64.5018 -11.4226 -314.575 -585.31 -321.705 37.9591 129.31 72.513 -261.198 376.401
2418 2 -20.6561 -64.5602 -11.4357 -260.321 -524.363 -347.439 118.639 -218.619 -46.0257 -257.954 496.255
4909 1 -19.3665 -64.1418 -12.3029 1052.69 984.687 820.023 18.6299 -14.6718 -73.6377 -813.34 246.76
2413 1 -24.7646 -64.2341 -11.9503 994.283 1007.19 874.319 76.5139 32.7423 -123.774 -824.804 287.83
2424 2 -21.9234 -63.3862 -9.38665 -529.362 -214.423 -79.1458 31.465 -45.2005 427.098 -244.759 846.421
2420 2 -21.4054 -65.1272 -7.1415 -145.355 -1070.42 -429.255 116.88 154.67 47.9267 -231.986 890.708
4913 2 -21.1526 -67.2322 -7.13324 -160.105 -745.486 -214.239 46.1712 270.699 -39.0778 -225.219 738.054
2428 1 -25.2935 -66.368 -7.06006 1065.83 1222.77 915.883 -101.464 1.49893 -7.39913 -813.964 318.906
4917 2 -18.0358 -64.083 -11.4296 -490.175 -576.586 -358.433 9.28694 87.2847 156.118 -257.28 363.923
2519 2 -19.5792 -62.7439 -13.07 -627.705 -394.177 -488.212 -32.9424 2.38549 -30.6724 -258.058 217.975
7408 1 -14.3497 -66.9071 -13.7214 882.005 812.894 1184.5 77.5235 245.403 -228.679 -772.28 687.579
7308 2 -10.4912 -68.4387 -13.5744 -416.209 218.108 -616.249 261.346 169.891 386.215 -260.956 1143.78
4824 2 -17.5724 -65.4502 -9.30069 -683.325 -544.039 -558.735 -98.2825 -21.1913 -114.918 -252.651 295.827
7320 2 -11.6388 -65.9888 -9.30475 -712.312 -588.213 -344.046 32.8481 57.0059 -93.5156 -237.706 380.185
7406 1 -11.8476 -66.184 -7.70439 465.301 1151.66 1106.33 -22.0901 -276.67 67.8417 -825.436 828.818
7414 2 -13.437 -66.1579 -7.57769 338.852 -352.733 -876.162 -43.7086 -32.366 -1.92087 -248.83 1059.79
4910 1 -17.3377 -65.942 -7.82194 855.146 1061.87 897.906 2.95348 62.6677 134.414 -803.574 318.954
7411 2 -14.4877 -65.9661 -12.4244 -618.145 -60.9865 -329.572 -76.3454 -39.683 431.908 -263.705 902.642
4920 2 -17.3491 -62.9599 -9.02292 -592.343 -619.949 -254.288 19.2204 -35.6476 158.067 -252.772 451.942
7405 1 -14.3866 -64.5636 -11.5873 1101.39 980.962 967.532 0.384476 67.4704 -206.219 -823.209 396.909
4914 2 -15.6438 -64.3397 -10.605 -288.985 -530.202 -523.436 -160.587 -205.704 147.971 -252.838 571.484
7413 2 -12.8755 -64.4988 -10.9808 -297.511 -620.068 -574.106 32.9116 -32.7995 94.6893 -249.082 353.136
4911 1 -17.1557 -64.1423 -10.0902 966.622 981.626 671.208 62.9895 36.1496 130.642 -824.6 398.688
7407 1 -11.5337 -64.6763 -10.1798 703.75 1140.61 711.437 -78.023 35.5632 24.6663 -847.732 459.816
5015 2 -14.5495 -63.3278 -12.6505 -624.874 -200.894 -532.725 -9.94932 73.8851 -101.535 -244.374 443.603
7416 2 -11.4148 -63.3931 -9.19624 -554.715 -235.216 -604.524 14.2447 -92.6414 355.294 -230.769 724.936
7409 2 -16.214 -67.0437 -7.43276 137.32 -785.088 -350.624 52.8699 182.25 -47.026 -233.898 868.049
4916 2 -16.1497 -64.936 -7.23483 94.9599 -868.12 -505.074 -97.8961 36.4587 -17.4375 -235.898 862.168
9905 2 -10.9174 -67.1672 -6.89809 -178.794 -906.367 -559.662 74.5818 252.656 100.074 -227.353 797.214
7412 2 -10.9193 -65.033 -7.00747 -85.3045 -1037.29 -684.024 49.4174 156.741 175.771 -220.512 931.928
7410 2 -10.2953 -64.6983 -11.1699 -806.834 -680.41 -678.034 102.456 124.972 125.735 -244.892 376.912
4918 2 -18.7947 -65.9962 -7.0936 -56.5882 -408.789 -562.038 -25.9919 -280.068 36.4353 -261.706 665.454
4924 1 -20.2527 -66.0588 -6.44756 865.752 1123.46 927.029 -147.653 -59.9932 -50.9062 -820.668 371.96
2431 2 -24.8993 -66.0884 -5.53204 -804.942 -361.769 -249.206 106.006 42.1441 275.664 -235.314 725.238
4927 2 -20.152 -65.7967 -4.84864 -722.842 -374.334 21.135 119.489 18.1961 279.438 -237.79 832.922
2432 2 -23.2732 -65.0866 -0.877105 -627.44 -436.713 141.902 109.103 -289.077 -246.895 -252.46 975.094
2433 2 -23.8718 -64.7835 -3.46667 -544.383 -626.619 -322.968 -2.31506 33.8933 1.49458 -240.947 278.325
2425 1 -25.1092 -64.8482 -4.48459 1358.23 1200.17 465.754 -49.6745 162.21 -232.51 -854.292 963.822
2430 2 -21.3528 -64.6816 -2.81268 -166.293 -547.502 -383.985 1.40531 -379.287 -32.1502 -237.374 737.839
4921 1 -19.975 -64.6251 -3.6863 1337.77 1303.11 802.413 -27.6921 286.204 -104.49 -854.676 741.652
2427 1 -22.8709 -64.3547 -2.29504 1294.39 790.467 882.766 -85.9056 114.15 93.5443 -849.606 550.842
2531 2 -19.9834 -63.2625 -4.6113 -613.945 -314.378 -91.2214 39.7226 -171.21 -193.587 -242.559 641.475
35 2 -25.0941 -63.5018 -5.40342 -766.91 -292.988 -333.91 -62.7194 -114.531 -112.381 -241.935 543.989
4929 2 -18.5979 -64.8113 -2.86454 -52.2774 -618.463 -261.867 -123.274 256.462 -74.4546 -230.713 710.891
7420 1 -14.974 -66.0712 -6.87397 1105.1 1192.57 858.811 -30.7395 -89.4724 -103.541 -808.918 385.827
7332 2 -12.2505 -67.4011 -1.84116 -505.339 -124.178 -304.834 82.0429 18.4552 -88.3806 -125.271 392.058
7418 1 -12.4981 -66.6915 -0.472378 1395.85 957.485 1307.31 -138.487 -224.276 424.855 -933.192 954.531
7423 2 -14.543 -65.8688 -5.39939 -692.353 -481.976 -466.475 159.292 81.7638 274.501 -240.494 608.268
7424 2 -12.4297 -65.0782 -0.741435 -698.466 -500.532 -433.097 46.4422 58.1854 -271.923 -207.624 543.623
4928 2 -16.5069 -65.597 -1.04196 -447.759 -357.975 -395.81 -158.846 166.318 -219.166 -227.421 555.769
7425 2 -13.5352 -64.6258 -3.14698 -445.436 -830.473 -337.778 206.841 104.591 152.941 -227.141 657.752
4926 2 -16.0394 -64.8311 -3.50953 -735.168 -716.351 -381.469 119.157 -132.623 -12.6318 -233.094 463.295
4923 1 -17.0088 -64.6548 -2.26439 1311.09 1039.21 945.187 -96.8514 265.69 -95.1503 -866.394 612.693
7419 1 -12.3956 -64.1494 -2.06687 1287.63 1106.46 1131.12 -265.708 -64.5412 -42.6925 -881.177 508.655
7417 1 -14.6477 -64.733 -4.24343 1036.57 1512.19 599.579 -198.531 63.7444 -375.086 -862.545 1085.14
4932 2 -17.0106 -63.0869 -1.97782 -731.932 -474.012 -587.299 7.31211 -47.0556 -101.129 -234.032 296.01
5027 2 -14.4821 -63.2767 -5.15396 -588.03 -61.939 -343.35 154.968 -97.0241 -222.695 -231.078 676.004
7426 2 -14.1665 -66.7672 -0.0871557 33.7566 -674.809 -649.077 -13.3398 41.1837 -190.311 -200.978 773.803
7422 2 -10.8935 -64.2096 -2.77616 -240.972 -645.183 -352.808 -15.285 -233.452 183.916 -227.365 629.575
2426 1 -23.5702 -65.9901 0.455316 875.96 990.717 1099.04 78.3367 268.817 -55.2484 -779.397 530.745
2434 2 -24.924 -66.8316 0.442108 -154.368 -587.973 -459.713 -55.9487 -304.463 -88.5439 -252.224 678.125
4948 1 -18.8655 -66.5489 6.63608 1072.52 1066.4 888.068 116.44 220.347 -257.551 -854.38 646.732
4930 2 -19.3118 -67.2068 1.80908 -19.856 -555.279 -609.233 -78.6795 298.679 26.1593 -228.259 778.928
4925 2 -22.194 -66.5088 0.999817 59.7669 -402.638 -799.426 -251.97 99.1979 111.014 -254.717 900.942
4943 2 -21.3176 -66.6584 3.30229 -732.805 -606.326 -595.422 -25.8861 -91.5375 -98.9303 -230.605 272.037
4937 2 -20.124 -66.4436 5.60668 -720.563 -585.532 -572.419 -87.9598 146.828 -31.9994 -227.565 333.368
4936 1 -20.7601 -66.4387 1.8414 1283.13 803.432 1019.12 9.68924 -49.8385 -136.434 -843.519 486.564
2446 2 -22.7645 -66.3795 5.55558 -483.053 -647.267 -425.88 -103.243 -81.5045 87.8656 -228.502 338.66
2438 1 -21.4154 -66.1032 4.80622 988.997 1067.66 683.361 167.315 -46.0085 134.226 -871.461 517.715
2445 2 -22.9963 -63.4698 2.73887 -441.108 -553.132 -706.335 -108.741 147.022 53.5619 -243.861 402.629
4933 1 -19.7248 -63.4201 1.44662 1090.23 1014.24 892.313 -51.0307 -77.8709 254.936 -848.549 500.886
2452 1 -24.1248 -65.6902 6.15038 1152.1 1292.49 782.662 71.85 8.65284 -174.715 -885.041 561.556
2443 2 -24.5831 -64.9931 1.60013 -239.606 -399.124 -633.665 -125.885 -501.571 7.49466 -300.973 959.323
4939 2 -20.2485 -64.9449 1.55529 -709.283 -450.262 -639.135 253.744 -87.5102 -60.349 -240.925 530.001
2441 2 -24.2507 -64.2926 5.55027 -447.132 -704.805 -123.732 -40.2896 26.4025 132.818 -165.167 560.534
2444 2 -21.3398 -64.4938 4.5005 -822.692 -332.628 -476.627 103.646 1.03841 -136.258 -228.819 527.502
2437 1 -24.4447 -63.4381 2.08732 1105.44 531.274 1272.93 -138.367 106.769 -168.728 -814.022 794.312
2439 1 -21.7271 -63.1596 3.68298 1210.77 933.413 1063.87 39.9445 -114.08 -392.035 -862.066 750.111
4941 2 -18.1786 -63.145 1.77043 -524.653 -731.137 -504.971 177.563 -26.0763 41.8647 -227.471 385.967
4955 2 -17.9217 -67.8876 6.44943 -224.8 -666.365 -405.882 -267.254 -238.839 203.202 -207.401 810.611
7436 2 -11.4889 -64.8764 4.50419 -690.338 -560.343 -636.591 32.6994 187.184 -273.311 -212.576 587.552
7429 1 -14.7455 -63.6131 2.04992 1030.87 987.186 1565.02 -184.908 75.4662 151.127 -890.244 706.207
7432 1 -15.6048 -66.1337 0.215004 1508.97 887.946 965.532 -134.81 61.0597 90.2658 -896.985 658.522
4922 1 -17.8246 -66.8205 2.3681 1180.98 981.138 1412.35 116.889 32.6784 43.4085 -866.943 435.375
9928 1 -10.3902 -66.7358 1.84776 1362.46 945.376 1218.42 -61.2971 -186.766 -66.9994 -908.093 513.822
4836 2 -17.8792 -65.2567 2.85206 -722.417 -370.735 -905.015 -25.7585 -31.1591 185.674 -226.422 574.079
7434 2 -10.8991 -62.9209 2.79252 -676.213 -732.823 -543.717 88.6785 23.7898 -194.192 -218.544 408.266
7435 2 -15.2083 -64.8304 1.04133 -712.294 -557.467 -516.354 198.153 140.138 39.9287 -213.693 462.082
4940 2 -17.4258 -67.5751 3.8037 -607.802 -471.447 53.1913 -53.7 233.901 -151.959 -229.617 779.378
4935 1 -17.5522 -63.7286 3.14676 964.966 851.535 1319.72 -79.9512 -20.4732 -174.098 -870.694 538.818
7421 2 -16.7409 -66.8068 1.17887 -444.318 -610.458 -417.67 3.84461 -341.795 -93.3235 -219.726 639.831
7431 1 -12.0452 -63.4931 3.78426 1018.77 1123.22 1127.1 110.437 -198.729 -204.799 -900.022 540.58
7433 2 -15.3633 -67.1931 5.55102 -190.797 -746.2 -572.846 81.4967 217.452 -19.6157 -220.05 636.536
4942 2 -17.6821 -65.8594 5.85131 -686.726 -837.634 -366.465 -310.703 -155.943 298 -206.016 895.904
7430 1 -11.2671 -66.4059 4.85166 1231.6 876.487 1251.81 -224.652 43.2864 214.788 -889.885 655.069
4938 2 -15.9623 -63.4886 3.09753 -332.837 -523.214 -897.91 67.0196 -234.444 50.7528 -214.182 658.838
9917 2 -11.5145 -67.0456 0.728296 -387.21 -514.244 -539.545 54.7723 252.488 -33.4115 -213.706 472.854
7447 2 -14.4239 -64.8849 5.71207 -331.544 -382.105 -327.407 3.66131 9.78552 25.7498 -134.753 71.4095
7437 2 -13.3002 -63.7332 2.843 -286.654 -521.526 -554.083 -25.4539 420.75 21.8654 -220.007 773.526
7444 1 -14.108 -66.3681 6.1317 925.284 1443.01 1140.26 -369.728 -101.597 -161.109 -917.695 849.638
7344 2 -10.9713 -66.9917 3.37443 -753.659 -655.822 -140.965 122.475 20.5413 -74.7471 -206.014 622.937
7438 2 -12.638 -66.8568 5.51637 -49.8215 -669.703 -595.099 27.6513 -113.409 64.6507 -214.428 630.072
4944 2 -18.1173 -62.9906 4.44895 -731.884 -405.511 -234.605 143.89 21.8987 311.356 -235.962 738.842
2436 2 -23.0425 -62.8169 -2.00097 -685.292 -567.965 -581.543 -60.487 -75.0695 12.4825 -248.251 201.759
29898 2 -25.6967 -62.9882 3.00051 -437.898 -357.899 -492.334 -126.964 -316.14 235.266 -256.779 726.609
2406 2 -21.2571 -62.7267 -17.2967 -104.642 -443.876 -345.943 68.1273 -304.803 -84.3279 -265.534 636.726
2404 1 -23.2593 -66.0987 -20.8911 1463.5 647.775 1416.94 -23.3713 221.915 -34.1593 -772.287 884.576
4951 2 -19.458 -65.9716 8.00904 -716.571 -353.23 -385.712 -192.269 -233.838 155.689 -236.273 684.784
2456 2 -21.6788 -65.6339 12.6058 -729.499 -488.491 -242.164 16.6622 207.295 -63.6977 -235.365 565.727
2457 2 -23.3433 -65.1427 10.4178 -94.1613 -617.433 -43.0191 -61.6261 281.945 11.7052 -232.248 743.958
2454 2 -20.5982 -65.0574 10.3378 -125.099 -743.309 -521.815 12.1413 -311.311 260.091 -225.841 887.943
2451 1 -21.9211 -64.842 11.2327 1472.7 1409.08 755.87 5.44109 207.987 -70.7291 -866.964 785.597
2449 1 -24.3749 -64.8685 9.14627 1350.99 1193.44 944.236 145.24 223.203 -85.9686 -867.1 600.915
4945 1 -19.5532 -64.8411 9.11742 1491.04 968.434 930.766 -46.1225 53.9918 -140.851 -872.639 607.341
2460 2 -22.0576 -63.1836 11.5919 -749.949 -126.176 -724.052 -118.007 -164.418 -46.1152 -219.65 709.131
59 2 -24.1867 -63.2931 8.71251 -616.531 -178.997 -502.748 25.9519 -107.869 -141.996 -238.831 502.011
2555 2 -20.2506 -63.4453 8.55692 -705.728 -324.782 -688.349 -168.893 162.903 110.611 -221.125 583.688
2455 2 -24.1337 -65.6948 7.79587 -698.056 -611.647 -1.63144 -24.2046 -0.197455 149.014 -225.027 707.58
2453 2 -25.1507 -66.405 13.8534 -178.773 -329.802 -480.061 46.7318 325.478 -14.8684 -254.42 626.98
2450 1 -21.6751 -65.7097 14.2014 901.441 1147.94 1327.39 -267.744 197.155 -236.22 -847.115 797.666
4953 2 -17.9674 -64.427 9.30512 -26.358 -470.365 -651.306 329.031 -76.6522 -33.3428 -220.593 809.918
7451 2 -14.0754 -66.3867 7.75668 -531.985 -542.511 -206.798 38.6885 9.42534 297.286 -225.499 615.772
7448 2 -13.057 -65.9572 10.4352 -150.21 -565.99 -463.652 216.82 368.347 355.332 -205.496 1033.27
7441 1 -14.0141 -65.5376 9.11575 835.303 1045.9 1583.31 -113.331 -304.557 -342.468 -858.364 1055.93
7449 2 -12.8764 -64.3665 9.002 -234.594 -671.725 -913.688 96.0401 122.468 289.203 -206.722 824.002
4950 2 -15.4266 -64.9362 9.6769 -337.288 -378.128 -664.022 -251.332 -87.7858 287.885 -223.904 745.878
7443 1 -11.9218 -64.8029 10.2119 861.461 1248.91 1017.28 -212.219 -242.965 -329.151 -858.41 866.749
4947 1 -16.4746 -63.737 9.528 1085.21 1130.34 1361.76 103.004 -167.913 -112.623 -885.236 469.575
7452 2 -11.8495 -63.5276 11.2121 -599.767 100.422 -297.211 41.0252 -24.1155 449.013 -232.821 990.752
5051 2 -15.7909 -62.8422 8.35754 -410.342 -702.681 -669.662 185.914 -147.645 -53.0035 -219.212 504.398
2467 2 -23.0419 -64.7288 14.5191 -72.866 -675.831 -680.762 80.6768 -30.1533 136.912 -216.649 667.123
2458 2 -22.6445 -66.9012 14.7596 -170.161 -540.029 -806.632 117.835 -309.943 36.4721 -214.661 800.205
2464 1 -23.9764 -66.0367 14.9317 778.375 907.909 1299.81 -79.4544 275.689 -199.673 -834.165 766.611
2468 2 -22.0257 -65.7141 17.564 -500.627 -466.935 -182.885 37.6805 131.411 73.7321 -143.292 404.679
2567 2 -19.1053 -63.1413 14.8938 -619.784 -450.277 -606.232 58.0864 86.8356 -31.7381 -220.494 249.769
4949 2 -20.3056 -65.4333 15.0053 -223.429 -387.363 -461.29 94.5244 424.687 307.119 -223.812 946.207
2471 2 -24.7505 -65.358 16.1365 -767.114 -168.424 -708.756 -145.649 -11.3443 358.294 -234.374 880.935
4957 1 -19.5184 -64.2879 15.9248 893.66 1268.26 993.904 -44.3353 -237.471 -32.8195 -896.235 539.565
2466 2 -20.6694 -63.6761 16.8901 -574.213 -768.113 -362.409 -27.4963 -78.1747 148.066 -219.066 458.148
2463 1 -21.853 -64.2131 17.8175 1062.4 1436.35 930.391 -19.5663 4.28698 -206.745 -895.919 579.71
2469 2 -23.2923 -63.5093 17.3327 -490.709 -703.273 -487.726 -38.851 179.251 96.349 -225.741 417.847
2472 2 -21.7648 -63.5496 19.3772 -552.276 -455.485 -36.723 -59.1052 -80.0284 335.445 -223.876 769.758
2461 1 -24.6529 -63.8041 16.6001 1121.53 976.011 899.013 83.3277 -109.091 -296.079 -850.532 598.188
4965 2 -18.2947 -64.6505 16.8056 -377.227 -750.454 -498.564 186.052 215.262 267.66 -205.708 752.675
4968 2 -17.514 -63.4968 19.1325 -526.147 -547.627 -184.487 -69.8407 -43.7909 263.245 -217.731 593.98
4964 2 -17.0452 -66.1195 18.5431 -502.115 -146.622 -416.495 -55.3295 -11.5049 73.9149 -115.41 359.5
4959 1 -17.1159 -64.6632 18.0073 1225.39 1446.74 1166.43 19.6096 45.6802 -105.517 -933.049 326.093
7461 2 -12.9626 -64.9209 16.9395 -46.7299 -915.531 -457.062 -25.8156 270.496 -54.3783 -218.522 892.785
7460 2 -11.7301 -63.6684 19.0403 -793.376 -633.708 -440.342 49.7938 -44.1397 162.394 -235.613 431.459
7455 1 -11.8906 -63.8535 17.4746 696.657 1281.47 778.726 -38.3784 -155.126 -174.33 -834.818 684.492
7453 1 -14.2286 -63.9462 16.5824 980.793 1432.38 1209.48 173.531 -326.07 -124.943 -846.046 780.443
4962 2 -15.6256 -64.2674 17.4381 154.948 -646.963 -366.837 57.8969 -278.269 86.5226 -219.816 872.76
7488 2 -11.918 -62.8521 32.83 243.369 -380.842 -750.101 73.1609 232.404 -93.2407 -317.242 980.134
7458 2 -10.4735 -63.6707 16.7884 -208.639 -480.806 -538.821 80.7243 -132.74 -34.489 -258.821 411.349
2478 2 -21.5384 -64.1212 25.8011 356.536 -418.107 -158.711 25.8372 -471.333 -93.3279 -276.535 1077.5
2475 1 -22.9353 -63.9471 26.6528 842.668 934.836 1397.44 -132.102 -341.774 -133.737 -724.812 849.457
4969 1 -20.1523 -63.39 25.0238 576.009 1146.01 1106.04 191.324 -18.7266 130.333 -786.468 682.305
2481 2 -24.295 -63.9589 25.8363 -19.14 -499.556 -415.474 15.6131 467.572 0.278916 -289.416 924.163
4977 2 -18.7124 -63.9756 25.1785 -49.9478 -495.106 -778.028 58.552 -92.4686 -47.7566 -272.156 668.532
83 2 -25.2266 -63.477 23.414 -501.793 -343.539 77.9381 158.239 22.6538 -523.24 -268.962 1080.46
2579 2 -20.3091 -63.024 23.4852 -470.343 -637.475 63.1581 100.784 -145.474 -323.176 -249.362 899.45
4974 2 -16.0265 -64.8392 24.6946 38.4954 -691.967 -576.08 77.7017 -395.198 80.8958 -233.048 984.196
7472 2 -12.9463 -64.7967 27.1389 -260.982 -332.503 -284.386 -92.5784 -105.573 171.424 -166.789 388.969
7473 2 -13.6782 -63.5335 25.0142 114.875 -519.954 -704.857 -225.49 40.8898 45.5781 -253.254 847.564
7467 1 -12.4108 -63.9432 26.0005 834.374 1066.66 1066.74 10.9257 121.098 -259.056 -847.734 547.409
7465 1 -15.0069 -63.6972 24.158 612.854 1285.66 848.78 -51.2028 553.065 192.629 -806.898 1177.46
4971 1 -17.1321 -63.8317 25.3676 255.135 1206.52 1112.69 -119.224 273.609 -71.0858 -789.833 1052.17
4976 2 -16.8051 -63.4492 26.868 -513.466 -718.464 -658.657 163.976 67.8936 -17.1596 -259.064 358.772
5075 2 -14.6611 -63.5503 22.6473 -638.03 -576.905 -631.895 14.3906 -167.425 -118.952 -240.785 361.334
7470 2 -11.056 -64.5307 25.1539 192.638 -359.88 -451.81 -162.906 -340.8 167.075 -266.371 936.115
2480 2 -23.1129 -64.6404 28.2324 -356.65 -458.818 507.89 24.0826 -103.383 -375.752 -275.171 1141.74
5087 2 -13.6239 -63.1601 30.7877 -301.831 -421.049 -315.343 -172.975 305.149 -257.489 -290.922 762.099
2490 2 -20.0499 -65.0139 32.292 285.977 -560.445 -504.322 237.968 55.2393 123.492 -294.562 947.031
2487 1 -21.7868 -64.896 32.3678 1007.26 772.3 1210.18 -44.5604 73.4529 87.5759 -755.837 434.986
2493 2 -22.6375 -65.0085 30.9254 -310.329 -480.958 -28.7621 -89.8236 366.268 -271.622 -280.449 896.902
29946 2 -25.0683 -64.4001 30.3022 -226.631 -626.296 -463.456 -177.337 -212.606 117.878 -259.988 626.739
4981 1 -18.7552 -64.312 31.9576 84.0298 578.195 743.717 -141.145 -207.426 -260.019 -670.334 863.171
2591 2 -18.9637 -63.2125 30.8058 -339.111 -50.6786 104.301 -157.631 308.362 -417.922 -306.14 1017.69
2496 2 -21.7443 -63.2896 32.5086 -503.78 -293.322 -686.008 103.048 112.416 -80.9275 -273.985 453.064
2485 1 -23.5124 -64.3166 29.8154 956.127 950.893 786.282 65.3405 -416.031 463.27 -774.457 1097.22
2489 2 -24.776 -66.4713 34.3486 469.669 -308.769 -650.652 -24.4298 361.935 60.3326 -269.108 1180.97
2492 2 -22.4431 -65.5474 33.6728 -391.481 -299.793 85.5944 107.79 -423.535 -220.353 -279.046 954.428
4983 1 -15.9714 -64.0338 33.348 398.209 946.016 1150.73 -102.187 -66.0665 -211.568 -733.341 795.517
4988 2 -15.5856 -64.4896 34.8678 -218.26 -470.945 -73.0389 -17.2253 505.454 -148.064 -279.248 977.111
7485 2 -11.8967 -64.9722 32.2924 142.293 -720.283 -465.823 -155.395 283.899 -143.595 -283.879 982.544
7479 1 -10.7373 -64.1893 33.0733 247.502 815.248 1420.32 81.0354 -91.8448 159.697 -719.764 1074
7484 2 -10.4582 -64.2017 34.6635 -275.858 -373.209 -122.624 -11.8315 307.452 -3.36711 -295.307 576.117
4989 2 -17.4291 -64.4552 32.6734 58.4195 -549.438 -351.528 -56.8445 250.693 99.4234 -314.659 718.504
7477 1 -13.1493 -64.012 32.0428 364.972 1062.27 1059.52 122.838 -96.7103 57.3942 -714.62 753.339
4986 2 -14.5605 -64.4173 32.6573 383.209 -485.814 -988.474 124.898 41.1475 209.116 -290.919 1275.84
7446 2 -10.4236 -65.1974 9.74305 -382.209 -751.539 -459.683 12.166 -226.496 116.958 -232.71 556.036
5063 2 -14.4734 -63.3537 15.0999 -693.857 -631.771 -423.574 -124.855 -6.64529 -193.306 -228.328 468.11
71 2 -25.0252 -62.8508 15.4067 -716.186 -653.477 -345.257 105.935 56.7685 32.6947 -246.845 405.957
7464 2 -13.1143 -62.7913 17.1339 43.1887 -930.742 -652.434 69.5375 50.8849 16.8271 -209.163 882.081
4980 2 -16.3635 -62.6977 24.4785 222.739 -884.75 -557.783 -47.736 -256.018 -100.72 -237.266 1097.83
98 1 -22.2976 -56.6024 -14.6614 878.717 810.718 992.515 63.0203 17.8263 -198.537 -816.208 395.513
12 2 -22.1248 -57.3502 -16.0772 -586.127 -611.116 -258.756 3.92697 24.0892 175.976 -256.902 458.985
2603 2 -19.6463 -57.5766 -19.5789 -424.816 -193.902 -496.812 -147.908 115.27 -125.751 -273.583 477.558
1 1 -24.2225 -58.9539 -19.3585 997.624 678.86 1058.57 53.4983 -83.9371 42.7375 -811.213 399.945
9 2 -23.004 -58.6984 -18.3419 -373.472 -385.468 -485.863 66.6562 56.7829 152.603 -269.869 322.944
3 1 -22.0946 -58.6322 -17.0419 928.013 815.541 827.981 37.1365 49.9515 -101.692 -812.762 232.491
2497 1 -19.4955 -58.9799 -18.7436 765.117 712.203 1167.09 -13.8992 -40.2246 -247.307 -795.944 612.018
6 2 -20.5724 -58.8687 -17.5121 -292.112 -464.655 -464.607 -17.8384 -216.243 29.2589 -257.955 416.616
8 2 -22.5983 -59.7797 -16.0311 -558.437 -366.335 -331.316 76.9353 -55.1101 -132.778 -258.117 353.009
2503 2 -19.8534 -60.2163 -19.6613 -554.146 -387.135 -595.743 -32.0245 -120.283 27.8859 -276.232 292.205
2596 1 -19.8184 -56.1671 -20.2823 859.158 707.129 1160.24 -43.7543 178.621 -54.891 -799.479 519.65
2 1 -22.629 -60.8675 -14.8082 966.868 770.278 1164.06 -62.6555 1.19193 -217.78 -808.323 519.963
2501 2 -21.0881 -61.0657 -14.3663 -69.3335 -422.401 -668.813 -129.916 -42.4338 85.0875 -260.073 591.719
107 2 -24.4376 -57.677 -20.2848 -467.255 -553.2 -585.112 -117.693 80.4521 -162.726 -252.288 389.305
7 2 -24.0509 -60.2644 -20.2731 -473.725 -101.253 -498.256 119.698 108.566 88.8982 -262.901 500.526
2506 2 -18.4165 -61.5487 -14.9461 -292.003 -410.427 -606.825 -89.8196 -159.643 139.064 -267.396 484.285
2597 2 -20.9076 -56.6551 -13.8663 -276.883 -381.675 -583.872 -69.3399 119.259 113.928 -263.009 411.198
2602 2 -18.2603 -57.079 -14.2516 -69.6292 -501.913 -323.898 33.1194 -287.806 -12.2812 -260.207 627.571
2507 2 -20.4886 -62.7044 -19.8987 -385.137 -506.106 -268.272 25.1865 -47.0813 -176.983 -268.982 380.722
2412 2 -23.025 -62.34 -15.3781 -571.068 -74.8471 -570.227 -64.9748 -11.3782 170.321 -267.054 588.133
2505 2 -18.0694 -59.3343 -18.1174 -362.221 -392.198 -527.882 -79.6253 126.525 -6.6401 -269.343 300.923
103 2 -24.4797 -55.2642 -19.8855 -527.948 -827.459 -573.784 -27.3881 -21.7078 -42.2606 -255.47 295.129
2500 1 -19.825 -61.4447 -20.6484 804.607 772.997 794.344 -76.1272 62.665 -35.7148 -777.7 183.776
2686 2 -18.3815 -55.6244 -20.6528 -333.85 -538.202 -652.449 -1.25562 -95.8514 -2.36301 -264.522 325.181
2508 2 -16.7548 -58.3516 -16.0184 -540.775 -203.512 -317.987 -40.3604 49.6982 331.593 -260.261 656.049
2594 1 -16.8814 -57.0036 -15.1107 1083.8 923.934 953.306 97.1048 -103.442 -210.881 -814.672 464.246
5090 1 -12.0913 -56.6807 -14.4206 652.5 840.925 946.118 53.4485 61.9252 -166.512 -826.009 411.878
5096 2 -12.4748 -55.3857 -15.271 -605.718 -342.493 -592.581 7.87547 -71.2138 72.5047 -256.185 311.726
5099 2 -14.022 -57.5389 -19.907 -478.594 -247.948 -457.481 -21.7009 73.9492 -127.006 -264.037 339.092
5004 2 -12.1487 -58.0245 -15.3104 -527.569 -321.68 -731.31 12.5735 -5.64846 116.788 -256.811 409.068
5001 2 -12.9443 -58.5279 -17.6525 -512.03 -569.172 -588.522 -14.2627 55.3143 -102.993 -255.436 215.307
4993 1 -13.9846 -58.7028 -18.8145 703.024 770.296 810.04 -169.352 -82.9035 -132.505 -804.943 410.013
4995 1 -11.8807 -58.9926 -16.5206 926.679 730.05 900.412 -190.141 -62.004 -154.678 -814.992 475.35
2499 1 -16.6979 -59.3916 -17.2806 918.141 703.549 1113.99 114.952 -38.0838 59.7449 -798.389 425.6
2502 2 -15.4069 -58.9173 -18.1858 -403.549 -400.819 -539.825 105.499 -130.857 -36.6816 -265.152 328.251
4999 2 -13.6212 -60.1272 -19.5364 -469.187 -366.679 -534.06 10.7901 25.2377 99.0857 -271.605 230.391
5000 2 -12.0815 -60.5478 -16.2392 -515.621 -409.765 -744.803 99.0922 58.1322 154.616 -263.461 446.435
2504 2 -16.6022 -60.8751 -16.7254 -533.702 -350.661 -513.094 141.743 -78.2746 -63.8944 -271.194 347.934
2498 1 -16.9689 -61.9162 -15.5609 1016.79 604.49 1014.07 -139.946 84.3497 -173.331 -793.789 582.33
4997 2 -15.8715 -61.808 -14.3218 -551.379 -498.696 -501.646 64.8622 110.107 -8.54003 -253.808 227.683
5002 2 -13.3693 -61.8755 -14.4459 -529.486 -403.061 -281.843 -62.1907 -175.16 201.168 -252.804 520.628
5093 2 -15.6185 -56.8167 -14.1339 -329.811 -496.548 -487.732 13.3647 151.693 161.432 -256.842 417.323
4994 1 -12.2452 -61.9694 -15.6256 893.836 510.994 1340.33 -36.644 -71.6501 65.6769 -812.856 741.102
7589 2 -10.5934 -56.4804 -13.9611 -248.294 -542.905 -625.545 -80.1072 -6.7195 74.2809 -253.521 392.316
5003 2 -14.2703 -62.5251 -20.2194 -383.198 -391.131 -576.956 -23.5332 -65.1693 -189.865 -285.419 398.267
7493 2 -10.8677 -62.3277 -14.8897 -232.855 -427.066 -520.655 55.0544 334.023 31.9061 -248.308 641.493