ITEM: TIMESTEP
100000
ITEM: NUMBER OF ATOMS
29952
ITEM: BOX BOUNDS pp pp pp
-2.5615833775063237e+01 3.5601128117061187e+01
-6.4793188136805924e+01 7.4778482471004651e+01
-2.1035324467156940e+01 3.4903177627851115e+01
ITEM: ATOMS id type x y z v_StrAtomXX v_StrAtomYY v_StrAtomZZ v_StrAtomXY v_StrAtomXZ v_StrAtomYZ c_PEAtom v_VMS
1 1 -24.5879 -60.7376 -19.6208 806.304 1218.06 824.174 33.6197 19.8206 56.4361 -828.509 420.269
2 1 -22.0473 -63.4154 -16.0811 1045.58 895.566 941.224 -68.7044 -14.7445 67.3278 -839.279 214.827
3 1 -22.0084 -60.7354 -17.8097 757.047 937.464 913.577 -68.7838 104.261 -128.315 -838.655 353.568
6 2 -20.5091 -60.8626 -18.2764 -508.242 -634 -599.081 -42.413 30.1388 62.6389 -246.752 180.376
7 2 -24.7876 -62.0673 -20.5502 -587.791 -68.0523 -456.557 39.6897 47.2899 98.3928 -254.484 509.531
8 2 -22.1648 -62.081 -16.9043 -634.018 -314.279 -541.199 -12.4755 57.2458 -24.2054 -248.625 305.33
9 2 -23.1391 -60.7458 -18.9469 -396.666 -669.655 -497.426 59.7188 109.1 9.40284 -246.922 322.244
10 2 -22.9863 -63.342 -14.7455 -589.199 -571.038 -447.385 24.237 -3.44597 -44.8285 -249.445 160.288
12 2 -22.1443 -59.3562 -17.0444 -616.857 -318.033 -545.773 34.7534 -47.8604 53.3851 -249.095 303.566
98 1 -22.0136 -57.9389 -16.2789 966.611 909.83 964.323 -50.3991 -23.0217 -11.2189 -835.927 112.637
103 2 -24.9608 -56.6937 -20.542 -550.278 -145.998 -348.807 20.4023 -56.3349 249.851 -251.142 566.241
104 2 -22.3352 -56.6664 -17.1989 -590.191 -51.8893 -647.002 -0.93531 3.4357 -47.4967 -245.041 574.79
106 2 -22.9686 -57.8729 -14.9808 -447.36 -603.985 -364.422 9.69416 -123.063 82.0289 -248.76 332.117
107 2 -24.6737 -59.289 -20.4205 -566.494 -263.185 -594.73 -3.58253 -1.96385 -62.4419 -247.092 336.31
2497 1 -19.0462 -60.8977 -18.9298 759.319 890.712 1035.26 -13.1535 -131.781 -46.4596 -834.516 340.948
2501 2 -20.5134 -63.6097 -15.5427 -247.325 -657.169 -613.431 -21.2123 116.617 -44.1069 -235.37 447.151
2503 2 -18.8121 -62.1961 -19.8208 -476.046 -243.375 -422.811 -19.401 -14.1761 189.211 -252.381 392.069
2597 2 -20.4859 -57.8662 -15.768 -289.741 -604.536 -521.122 -50.3043 98.2808 -8.46641 -250.735 341.437
2599 2 -18.8652 -56.864 -19.8743 -528.183 -74.4059 -327.822 16.6167 16.9854 252.088 -253.63 589.473
2603 2 -18.8215 -59.5532 -19.7716 -524.612 -313.305 -551.949 12.7347 50.6784 -65.3934 -252.794 268.691
2596 1 -19.0234 -58.2643 -20.6991 1217.08 984.343 1002.19 -22.4125 -56.2797 71.9626 -831.017 277.266
2608 1 -19.4361 -58.0881 -14.5879 910.92 986.403 1063.99 0.294007 -13.7149 217.381 -832.21 399.876
2512 1 -19.307 -63.5114 -14.493 796.61 1077.35 1092.51 -17.683 -45.0526 38.608 -846.296 307.894
2500 1 -19.0302 -63.5187 -20.7821 896.55 1024.55 1064.47 28.6678 -49.5241 49.5499 -835.828 200.689
5 2 -25.5447 -63.4175 -14.2951 -269.84 -560.833 -409.967 -7.12046 164.067 26.927 -238.224 382.908
2602 2 -17.8551 -58.0811 -14.9791 -193.766 -593.623 -527.085 10.4399 -9.59369 -21.9023 -247.887 373.831
101 2 -25.4731 -57.8864 -14.3609 -368.641 -639.187 -507.062 18.1457 108.92 79.808 -245.369 332.555
2506 2 -17.8586 -63.5679 -15.1521 -540.185 -585.391 -581.304 -41.1683 -5.57918 57.7975 -246.198 130.672
2507 2 -18.8512 -64.8772 -19.9284 -592.472 -90.8678 -571.347 -96.0027 128.272 -121.795 -248.022 602.469
2505 2 -17.9555 -60.8594 -17.7415 -450.369 -581.397 -487.157 66.3786 122.404 95.1473 -250.12 314.686
2498 1 -16.3329 -63.5158 -15.57 837.676 865.476 996.793 -1.7412 3.82235 -42.807 -839.801 164.978
2499 1 -16.47 -60.7429 -17.194 1015.98 999.263 817.847 35.9048 9.67982 -95.2875 -831.03 260.023
2502 2 -15.37 -60.7294 -18.3562 -331.285 -697.916 -731.5 -10.2855 -47.2937 -3.03478 -246.35 393.591
2504 2 -16.1569 -62.1707 -16.3881 -630.608 -132.551 -466.553 -199.196 103.01 -84.1584 -246.897 604.47
2508 2 -16.1892 -59.4378 -16.3216 -620.991 -451.88 -681.562 83.3537 84.2875 -125.784 -253.552 363.5
2594 1 -16.3512 -58.0947 -15.5614 932.002 791.73 928.037 14.0882 -95.1086 -187.012 -836.73 389.6
2600 2 -16.1061 -56.7114 -16.3827 -532.893 -94.2056 -586.511 -3.86876 -7.01013 -48.6684 -246.423 475.543
4993 1 -14.3734 -60.7777 -19.5687 1038.45 864.181 830.615 -146.15 176.179 -161.772 -841.555 522.545
4994 1 -12.0395 -63.4505 -16.1937 1141.79 864.363 1017.01 106.517 151.926 124.004 -833.762 455.337
4995 1 -11.7422 -60.777 -17.8439 980.783 881.349 1025.55 98.9151 12.355 50.3622 -834.592 231.867
4999 2 -14.7099 -62.0046 -20.4702 -623.293 -398.609 -641.173 -27.3753 -74.4318 -2.11644 -244.641 271.481
5000 2 -12.1301 -62.0778 -16.9505 -547.885 -227.135 -749.374 130.881 -199.077 3.3196 -247.897 615.161
5001 2 -12.8111 -61.0156 -19.0391 -40.2156 -546.533 -638.811 -29.1103 154.375 59.4197 -239.492 629.463
5002 2 -12.9724 -63.4796 -14.8669 -590.663 -561.555 -162.997 -41.2855 -176.048 -79.61 -240.154 537.031
5004 2 -12.0349 -59.3827 -17.1206 -518.057 -218.773 -373.559 43.5092 46.922 178.814 -250.167 418.822
5090 1 -11.644 -58.0439 -16.2248 1043.87 824.99 1070.34 88.0043 12.5631 141.4 -836.676 371.607
5095 2 -14.4752 -56.7444 -20.6635 -488.48 -81.6612 -352.476 -41.9406 -39.7407 277.209 -247.741 607.634
5096 2 -11.8135 -56.7567 -17.101 -582.273 -439.727 -618.27 -69.8603 -13.1205 9.59036 -248.829 205.378
5098 2 -12.6235 -57.9426 -14.9177 -304.419 -498.517 -238.119 -43.4342 -289.877 32.2629 -244.213 561.967
5099 2 -14.5044 -59.4125 -20.4434 -441.581 -269.317 -399.217 26.609 -60.8839 -221.118 -245.274 429.063
5093 2 -15.198 -58.0793 -14.4326 -410.374 -623.618 -603.401 35.5366 59.7068 62.6625 -244.027 260.449
4997 2 -15.3847 -63.6431 -14.2648 -679.033 -545.408 -501.086 -109.647 99.1992 -123.195 -243.012 369.949
7589 2 -10.1413 -58.1401 -15.662 -395.602 -588.636 -616.685 67.564 108.706 20.2495 -246.473 306.332
4998 2 -10.1851 -60.7504 -18.2637 -242.722 -501.241 -509.579 14.253 -133.62 -38.0675 -254.747 357.179
7493 2 -10.5268 -63.4931 -15.5256 -237.967 -552.648 -339.11 53.1911 294.062 35.303 -243.125 590.821
5003 2 -14.6579 -64.746 -20.4269 -611.847 -283.007 -539.039 -46.8027 18.116 -59.0859 -247.839 327.909
27558 2 -25.5111 -55.1823 -18.333 -500.47 -652.273 -382.753 3.58158 -67.2294 75.9809 -247.053 292.725
2692 1 -18.9706 -52.7479 -20.6659 1102.31 821.085 780.781 17.0133 39.0256 -157.564 -846.389 414.686
97 1 -24.6708 -55.3318 -19.6951 1069 1101.94 925.421 -131.244 62.3175 9.90543 -832.375 300.083
99 1 -22.0812 -55.2371 -17.9657 901.511 996.908 998.915 113.287 -34.5985 -25.506 -838.968 230.956
102 2 -20.5702 -55.3536 -18.5252 -379.684 -600.58 -563.76 -146.161 -83.7435 44.1673 -243.844 364.689
105 2 -23.1063 -55.3711 -19.2251 -326.048 -596.816 -385.221 82.1024 214.497 113.611 -240.653 507.706
108 2 -22.2061 -53.8816 -17.1745 -633.747 -228.537 -434.1 81.227 11.418 88.3337 -250.234 408.348
193 1 -24.6679 -49.9645 -19.6973 1003.35 974.798 838.47 125.762 -15.872 91.4118 -842.301 310.751
194 1 -21.9367 -52.574 -16.2022 866.174 786.587 946.957 -54.2057 -120.851 180.298 -833.644 411.632
195 1 -22.0779 -49.9386 -17.8338 1175.57 863.417 1017.34 26.0956 -37.0397 28.6953 -830.979 285.855
198 2 -20.486 -49.9793 -18.3558 -79.7893 -535.006 -463.569 2.48526 -95.0142 -19.9506 -251.118 456.182
199 2 -24.7567 -51.3321 -20.5883 -590.508 -326.24 -593.935 -100.337 17.2676 32.544 -244.05 324.082
200 2 -22.308 -51.273 -16.9857 -551.219 -468.739 -551.617 -17.7664 44.3747 -11.8614 -255.891 118.795
201 2 -23.1957 -49.8863 -19.0284 -244.176 -630.464 -453.019 -16.7836 192.549 14.2689 -240.417 474.175
202 2 -22.9125 -52.6474 -14.8988 -213.833 -544.762 -272.483 60.5027 -287.868 -22.0104 -248.538 595.47
204 2 -22.211 -48.5512 -17.0488 -645.019 -155.997 -580.284 7.40184 25.9006 47.6263 -244.734 469.742
299 2 -24.7561 -48.6382 -20.5516 -623.919 -275.534 -427.575 79.7859 -100.378 -154.053 -246.734 460.479
2593 1 -19.0564 -55.4901 -19.0124 933.688 1003.01 1253.83 3.1254 45.7962 3.89037 -833.944 302.442
2689 1 -19.0351 -50.0385 -19.0006 926.709 951.576 1096.55 -86.7939 -6.53365 139.697 -838.81 326.364
2693 2 -20.4598 -52.7503 -15.7432 -547.528 -579.355 -612.355 -76.1803 56.5047 -88.2079 -250.327 231.264
2695 2 -18.7718 -51.4857 -19.7807 -544.906 -251.407 -619.059 -93.5286 -40.3395 40.1415 -245.432 386.475
2699 2 -18.8235 -54.1525 -19.9182 -601.231 -216.704 -498.246 -40.2007 57.4122 -103.916 -246.825 407.43
2795 2 -18.8346 -48.7811 -19.9564 -621.688 -324.438 -709.571 73.1991 -25.3988 16.836 -247.001 375.585
2704 1 -19.3893 -52.771 -14.5429 892.73 909.188 1019.79 15.0842 -80.555 151.789 -831.009 321.859
203 2 -24.9285 -53.9657 -20.5487 -502.458 -253.23 -620.914 70.0713 -67.0195 -45.4982 -245.629 374.278
2789 2 -20.4585 -47.1665 -15.7657 -451.644 -628.513 -444.224 -53.5518 152.845 -110.879 -240.512 384.994
2698 2 -17.8562 -52.7344 -15.0436 -351.089 -560.602 -568.392 -37.5736 -64.631 36.462 -250.898 257.573
2788 1 -18.8511 -47.3595 -20.6423 1116.89 924.077 1003.89 -8.40729 25.4988 231.909 -839.625 437.797
290 1 -21.971 -47.1821 -16.1997 999.068 880.059 884.451 83.7449 -194.137 140.611 -843.122 455.061
2697 2 -17.8138 -49.9296 -17.9282 -215.63 -611.803 -562.457 79.0578 147.42 -8.74196 -239.756 473.303
298 2 -22.9708 -47.3297 -14.9046 -207.607 -599.099 -210.47 6.80042 -211.24 -47.0951 -246.375 541.122
2794 2 -17.9747 -47.3221 -14.8308 -319.238 -554.184 -559.338 -42.791 -160.888 60.2887 -255.723 387.93
2601 2 -18.0062 -55.4221 -17.7206 -133.946 -451.271 -208.138 81.5297 334.48 82.2127 -246.955 677.13
2595 1 -16.4291 -55.3527 -17.2184 1131.48 852.859 849.106 -23.345 114.839 -114.66 -836.6 399.163
2598 2 -15.531 -55.4391 -18.5247 -432.189 -650.842 -515.465 -41.0981 -116.721 86.6898 -244.648 324.066
2604 2 -16.0769 -54.0255 -16.4504 -497.378 -236.465 -561.501 25.7195 3.97382 64.8242 -250.684 321.802
2690 1 -16.3591 -52.6604 -15.5662 714.401 916.253 1006.98 -99.2456 -49.1347 100.352 -838.653 366.459
2691 1 -16.35 -49.9921 -17.2292 993.336 831.289 1006.83 -69.4214 26.6276 156.478 -837.564 344.484
2694 2 -15.2883 -50.137 -18.461 -458.525 -515.126 -230.903 -57.5333 -159.611 128.981 -250.371 451.845
2696 2 -16.2636 -51.304 -16.3821 -602.377 -487.042 -763.963 21.2757 -5.21185 82.4837 -247.895 282.665
2700 2 -16.2373 -48.6893 -16.2682 -483.242 -217.919 -329.921 -15.3366 -106.335 261.663 -252.914 541.529
5089 1 -14.4313 -55.3932 -19.7077 1010.99 995.687 966.769 3.30126 70.6871 124.64 -838.77 251.279
5091 1 -11.8479 -55.3234 -17.8295 860.822 805.816 1005.55 7.80296 36.498 -75.0147 -841.586 230.2
5097 2 -12.9746 -55.3379 -18.9729 -334.248 -570.172 -426.306 52.7315 133.44 45.2852 -245.721 332.159
5100 2 -12.063 -54.1087 -16.8268 -626.35 -334.956 -530.862 107.581 56.8877 78.514 -248.63 359.342
5185 1 -14.4295 -50.1283 -19.8374 1128.01 529.255 950.537 40.2256 4.48678 17.9391 -830.395 538.163
5186 1 -11.7063 -52.6924 -16.1424 929.398 990.419 812.125 -38.7691 -51.7055 2.39693 -828.346 192.82
5187 1 -11.9891 -50.1313 -17.972 874.779 1071.48 1108.15 137.085 -134.197 145.686 -828.714 470.451
5191 2 -14.7096 -51.3696 -20.7896 -582.555 -534.895 -650.923 -50.1588 -70.7203 -8.54973 -247.991 181.59
5192 2 -12.1356 -51.4709 -17.1118 -473.713 -243.339 -569.772 -167.008 124.096 -90.0211 -254.49 488.482
5193 2 -12.8847 -50.1913 -19.2931 -502.337 -470.208 -362.458 -23.7917 153.251 62.8514 -248.746 316.403
5194 2 -12.6369 -52.4778 -14.845 -283.71 -607.791 -389.576 5.56429 -190.375 39.7815 -250.775 442.149
5196 2 -12.1774 -48.7216 -17.0648 -545.028 33.3988 -356.317 25.299 58.3613 244.786 -253.635 673.002
5291 2 -14.6433 -48.7971 -20.6334 -565.595 -515.78 -642.513 6.2186 -50.5548 -22.4916 -252.281 146.733
5195 2 -14.6078 -54.0472 -20.5058 -556.23 -199.583 -483.196 91.0236 -68.8674 -94.2686 -246.815 415.003
7685 2 -10.1913 -52.7008 -15.6804 -531.132 -586.995 -551.429 -61.544 60.7089 -5.29649 -256.483 157.806
5282 1 -11.8835 -47.4025 -16.2081 1160.44 1007.13 945.593 -55.8133 10.386 4.81338 -832.506 215.552
5189 2 -15.2811 -52.624 -14.4179 -182.988 -626.609 -575.194 19.7485 100.062 -24.4203 -242.92 457.854
5190 2 -10.4597 -50.0375 -18.5105 -154.775 -518.148 -469.48 -80.3367 -323.584 6.77281 -241.748 671.076
5290 2 -12.8192 -47.352 -14.8824 -252.728 -602.045 -267.975 -27.666 -166.847 60.4632 -255.283 462.283
7781 2 -10.3163 -47.4827 -15.6308 -71.8655 -571.741 -288.56 -1.59281 306.488 -42.7651 -239.777 689.79
5094 2 -10.3779 -55.1174 -18.4102 -266.966 -579.533 -614.072 -79.0389 -83.7511 63.4362 -241.008 401.925
17 2 -25.4741 -63.4343 -8.67369 -493.804 -590.883 -463.921 -41.1568 96.9619 32.223 -246.376 222.755
27474 2 -25.6819 -60.5846 -11.5408 -175.06 -559.376 -495.892 7.26971 -111.842 17.8064 -246.358 407.39
2615 2 -19.699 -59.4437 -13.8632 -559.721 -397.86 -521.061 -116.649 61.2143 -76.5839 -252.189 301.817
112 1 -23.995 -57.949 -13.7503 954.061 1069.54 822.244 -71.4953 8.25808 -105.469 -838.541 307.969
16 1 -24.0564 -63.4412 -13.6364 1077.08 943.476 766.87 74.6506 183.814 -27.9818 -844.167 439.389
13 1 -24.1186 -60.6982 -12.0563 1113.49 952.372 958.308 -39.1041 -36.8334 -164.163 -844.465 338.443
14 1 -21.5204 -63.2614 -8.61426 814.753 868.389 961.33 250.933 -140.521 -48.6746 -850.725 521.294
15 1 -21.4907 -60.4868 -10.2676 1283.39 962.104 916.81 28.0798 31.9345 -117.023 -842.687 407.843
18 2 -20.5246 -60.5863 -11.6348 -441.167 -566.413 -54.7029 -95.5116 -322.614 159.51 -235.068 793.336
19 2 -23.9066 -62.1197 -12.7002 -653.849 -300.628 -620.241 -25.5701 -1.77366 8.33872 -242.914 340.886
20 2 -21.2608 -61.9154 -9.50283 -578.793 -87.8471 -604.615 37.1541 -176.558 -112.349 -234.744 624.419
21 2 -23.0522 -60.6192 -10.8478 -183.018 -646.361 -386.456 84.4537 207.55 23.0843 -236.734 560.392
22 2 -22.9721 -63.3419 -7.93481 -309.257 -470.942 -516.569 -0.386681 -177.544 -76.7193 -247.031 384.48
24 2 -21.2612 -59.2104 -9.43821 -482.179 -474.352 -459.354 -54.0152 -129.783 55.3633 -252.183 262.455
110 1 -21.5412 -57.9586 -8.39008 845.336 937.754 1038.32 -218.112 -43.4881 95.573 -839.343 451.379
115 2 -23.8458 -56.6968 -12.7686 -622.511 -280.798 -452.045 -40.4842 -49.8848 126.313 -250.227 384.478
116 2 -21.3331 -56.6206 -9.20607 -619.28 -510.881 -459.946 42.7252 -19.9953 -140.414 -242.937 292.729
118 2 -23.0325 -57.9303 -7.82952 -243.04 -562.374 -570.289 55.8241 -25.9691 -4.19933 -247.066 340.573
119 2 -23.8159 -59.4047 -13.0081 -552.043 -46.2147 -420.594 66.2404 -41.8603 -136.817 -246.692 530.309
2509 1 -19.4754 -60.7222 -12.8851 1064.42 950.662 1092.78 6.92612 23.4583 12.5734 -841.603 138.706
2515 2 -19.56 -62.0978 -13.7169 -472.939 -164.171 -487.842 -87.6845 -92.7428 126.499 -249.671 443.889
2611 2 -19.559 -56.7492 -13.5324 -515.369 128.669 -260.301 79.2028 54.0869 373.973 -242.44 873.346
28 1 -24.5144 -63.3794 -7.40607 951.51 1021.44 1111.43 61.8605 -211.646 -93.3771 -828.623 437.38
124 1 -24.5887 -58.1614 -7.38187 1019.06 840.463 1080.04 117.205 91.7984 322.44 -823.246 651.844
2609 2 -20.4404 -58.18 -7.24117 -286.559 -598.325 -506.319 3.83612 153.32 -44.7328 -242.833 391.851
2614 2 -17.9198 -57.8851 -7.86314 -432.661 -629.964 -181.39 52.858 -188.495 -128.558 -245.951 562.314
2513 2 -20.3845 -63.148 -7.56469 -614.542 -617.537 -719.177 -48.407 -67.9599 118.2 -241.865 271.004
113 2 -25.6101 -58.259 -8.70257 -377.731 -526.572 -191.313 -7.43907 252.202 59.0188 -252.619 534.87
2424 2 -21.4533 -64.5682 -9.5283 -683.154 -322.448 -512.284 -42.3371 78.7996 49.282 -242.627 359.115
2519 2 -19.4614 -64.8348 -13.5563 -539.821 -114.697 -528.262 27.2188 -58.9812 -188.54 -239.434 543.37
2518 2 -17.8165 -63.3862 -7.9165 -375.647 -642.846 -450.652 18.2155 -200.496 -43.6745 -240.674 429.294
2517 2 -18.0688 -60.6645 -12.0832 -486.833 -524.488 -365.315 -14.3259 255.101 -17.9275 -242.403 466.444
5104 1 -13.7775 -58.0142 -13.739 1049.07 822.99 1046.53 31.2743 -67.3366 -120.728 -841.529 332.874
5008 1 -13.9841 -63.5008 -13.5677 914.612 727.78 1000.94 131.474 -145.209 72.7474 -842.746 435.289
2510 1 -16.7958 -63.3748 -9.18233 1174.95 1081.47 1088.11 65.1563 122.483 152.014 -838.451 367.734
2511 1 -16.9948 -60.6681 -10.8749 960.157 841.015 1059.69 65.0899 -9.97304 0.530688 -846.635 221.293
2514 2 -15.5102 -60.5648 -11.4493 -314.271 -524.555 -520.876 -76.8828 -71.7333 27.7237 -249.629 280.954
2516 2 -17.0951 -62.0418 -10.0479 -562.963 -285.52 -472.938 -90.619 25.529 -167.248 -245.369 413.048
2520 2 -17.3039 -59.426 -9.89424 -611.908 -163.608 -485.788 -48.8789 -74.7042 125.943 -243.651 481.492
2606 1 -17.0259 -57.9814 -9.19267 1135.49 1092.4 884.635 -32.6218 63.4464 7.45295 -837.88 263.457
2612 2 -17.1463 -56.6751 -10.1268 -570.975 -241.75 -513.827 27.9652 16.2842 -66.09 -254.274 330.282
5005 1 -13.9998 -60.7138 -12.0061 1053.13 976.772 1104.41 -9.49169 53.9907 -33.975 -839.37 157.65
5006 1 -11.2157 -63.4389 -8.53744 899.896 1077.19 936.888 12.5909 -78.6813 119.913 -843.095 297.369
5007 1 -11.3308 -60.7484 -10.2324 1036.49 884.167 782.041 35.0756 113.326 -43.252 -851.208 311.481
5009 2 -15.2759 -63.3847 -8.58108 -343.02 -554.324 -568.305 -11.2001 144.743 -3.64786 -244.187 333.267
5011 2 -13.8642 -62.0801 -12.8299 -543.303 -303.418 -584.146 -47.7401 -37.1048 75.073 -247.384 311.265
5012 2 -11.0726 -62.0923 -9.37228 -647.924 -292.169 -528.082 -60.7251 9.05649 -39.5701 -243.791 338.076
5013 2 -12.815 -60.8018 -10.8391 -207.025 -606.547 -455.641 -40.6796 201.644 20.3751 -238.82 500.29
5014 2 -12.7167 -63.4717 -7.96146 -268.454 -537.777 -487.717 -9.48175 -155.133 14.075 -243.938 366.907
5016 2 -11.1859 -59.4411 -9.30693 -627.003 -229.559 -491.151 28.3322 53.9095 154.011 -243.793 452.448
5102 1 -11.3098 -58.0844 -8.43375 1161.4 952.193 1214.76 46.5873 -19.7794 0.900694 -835.199 255.865
5105 2 -15.4644 -58.1199 -8.65525 -219.599 -634.296 -477.399 -62.9708 224.042 -62.6309 -237.811 552.969
5107 2 -13.6269 -56.7821 -12.7449 -567.618 -506.298 -605.248 -14.9225 -11.0162 13.9006 -249.161 95.3698
5108 2 -10.9619 -56.7726 -9.32249 -526.569 -292.476 -492.17 56.3628 -26.616 -122.662 -251.323 323.611
5110 2 -12.8646 -58.0567 -7.89629 -71.203 -533.464 -491.459 56.5588 -156.557 -29.1959 -247.804 530.77
5111 2 -13.6381 -59.3733 -12.8488 -572.646 -206.549 -454.467 65.4731 -67.6862 -184.159 -242.493 482.779
5020 1 -14.2463 -63.4644 -7.38889 961.015 882.38 1018.23 25.9701 -185.36 -40.9479 -848.091 352.258
5116 1 -14.4147 -58.0909 -7.43841 997.703 1041.43 1010.48 -27.2806 -48.3306 2.31178 -843.054 103.791
7601 2 -10.2244 -58.1161 -7.16589 -418.205 -612.512 -337.143 -21.5163 191.198 19.4535 -239.902 415.055
2807 2 -19.8542 -48.7503 -13.7508 -511.654 -365.928 -615.273 20.7831 57.4728 21.1563 -260.767 244.174
114 2 -20.2914 -55.3976 -11.3767 -330.68 -560.567 -252.097 -0.183331 -212.852 -85.2897 -252.207 484.593
117 2 -22.8284 -55.2984 -10.77 -254.317 -586.496 -568.127 89.7368 90.0179 105.566 -246.611 431.832
208 1 -23.9875 -52.7137 -13.6415 1129.25 901.078 1028.92 24.763 -58.0787 -17.5461 -828.064 228.295
109 1 -24.037 -55.3863 -11.8435 1073.04 983.144 1034.87 87.923 -58.9056 4.11952 -832.688 199.395
111 1 -21.3412 -55.3123 -10.1638 989.715 827.895 922.523 44.8636 26.6771 -38.499 -840.511 180.131
120 2 -21.0721 -54.0458 -9.25694 -454.915 -309.897 -467.931 -114.689 -58.3905 116.916 -250.75 337.319
205 1 -24.1136 -50.0933 -11.9647 875.796 918.182 1080.57 -7.0077 -17.106 -203.646 -832.329 400.612
206 1 -21.4969 -52.5988 -8.58325 1039.34 1068.62 917.546 -179.812 -140.156 17.0701 -838.041 419.595
207 1 -21.5627 -49.8909 -10.3215 1153.34 1059.57 743.488 -49.2747 -107.892 -151.675 -838.59 499.56
210 2 -20.5294 -49.9242 -11.5633 -231.899 -626.55 -377.489 -7.36166 -229.061 73.0916 -247.561 541.374
211 2 -23.7206 -51.4254 -12.6969 -596.072 -379.813 -542.035 54.4193 44.233 89.734 -251.935 277.332
212 2 -21.2841 -51.3173 -9.52236 -725.292 -5.55525 -495.893 -69.4874 112.259 -111.538 -241.795 703.671
213 2 -23.1223 -49.9054 -10.7113 -290.999 -651.4 -488.363 29.4929 43.212 16.5727 -246.572 326.721
214 2 -23.0969 -52.4758 -8.21675 -214.897 -514.259 -584.669 -38.9442 -117.32 51.047 -240.141 411.477
215 2 -23.8556 -54.0502 -12.7452 -528.635 -324.201 -371.308 70.8145 -118.176 -207.048 -251.425 468.967
216 2 -21.3007 -48.5798 -9.4784 -646.86 -363.601 -385.872 -33.9726 -11.2587 116.428 -249.057 344.865
311 2 -23.9272 -48.7359 -12.8981 -598.972 -174.237 -490.894 109.475 -44.328 -95.532 -250.96 464.117
2605 1 -19.3294 -55.3379 -12.7002 1225.32 1157.34 1000.45 71.3487 32.9681 31.2824 -827.939 247.727
2701 1 -19.5353 -49.9961 -12.863 1182.8 776.292 1022.34 -58.2991 52.694 146.842 -826.301 457.145
2705 2 -20.6239 -52.4734 -7.2673 -462.338 -631.762 -464.329 0.71547 134.249 -2.02319 -245.965 287.146
2707 2 -19.6976 -51.3926 -13.6947 -537.389 -82.6462 -418.49 -41.5013 -67.5863 217.542 -248.441 572.454
2711 2 -19.6504 -54.0522 -13.6544 -548.748 -301.72 -395.614 -24.166 -21.5792 -160.986 -255.2 357.131
220 1 -24.5461 -52.7192 -7.56205 929.541 924.23 1088.03 31.3925 43.0159 -82.0378 -845.645 233.853
2709 2 -18.0056 -50.0411 -12.212 -331.564 -518.267 -571.243 -79.6505 126.674 -85.931 -247.992 369.972
2710 2 -18.0775 -52.5672 -7.93817 -342.847 -643.009 -293.177 40.7161 -197.859 -91.2262 -237.703 504.834
2613 2 -17.7586 -55.1991 -12.1732 -107.056 -572.368 -355.365 20.2188 237.915 16.4182 -243.009 578.34
2801 2 -20.6206 -47.5115 -7.14209 -440.69 -586.209 -499.057 34.8868 85.0695 82.1294 -247.772 248.367
304 1 -24.0191 -47.3515 -13.6379 1223.26 964.209 884.947 -19.6318 -153.347 171.27 -838.139 503.614
5109 2 -12.669 -55.4112 -10.8454 -284.934 -598.089 -360.721 -28.5732 281.013 -127.337 -238.055 606.692
2610 2 -15.3056 -55.3584 -11.3247 -483.565 -573.598 -474.03 5.04328 -159.43 34.5585 -249.664 298.276
5200 1 -13.7784 -52.6512 -13.695 1186.41 1009.93 948.016 -31.5133 -24.447 -39.0078 -831.197 235.04
2607 1 -16.8013 -55.3046 -10.8512 739.332 978.453 1073.57 -68.0955 40.3544 108.657 -838.84 378.4
2616 2 -17.1358 -53.9766 -9.95257 -541.191 -211.93 -538.499 -106.286 -93.3028 66.0559 -245.928 425.006
2702 1 -17.0481 -52.6044 -9.14362 1006.43 1033.06 841.934 -25.992 70.4301 -13.5647 -853.226 222.729
2703 1 -17.0481 -49.9801 -10.9882 738.34 890.752 919.165 79.7187 -179.109 -69.7802 -851.986 397.845
2706 2 -15.4946 -49.9539 -11.4056 -404.391 -661.686 -645.705 31.1768 4.54064 -46.5213 -242.936 267.983
2708 2 -17.2336 -51.2747 -10.0397 -553.869 -348.127 -492.761 -24.8997 40.7106 -108.343 -241.005 274.842
2712 2 -17.3055 -48.6862 -10.1199 -624.365 -494.594 -480.994 11.7354 64.3426 125.684 -240.244 281.093
5101 1 -13.845 -55.4071 -12.019 998.717 895.929 1059.01 -64.9007 14.5714 -185.953 -836.288 370.685
5103 1 -11.1835 -55.4593 -10.1886 1062.32 850.065 798.677 -107.046 106.051 48.8507 -839.126 365.889
5112 2 -11.0491 -54.1458 -9.26566 -590.573 -397.656 -475.297 24.6072 -59.0738 42.3848 -254.477 214.341
5197 1 -13.9706 -50.064 -11.7961 714.413 1226.48 1065.18 127.467 -161.953 -88.1909 -835.754 596.987
5198 1 -11.3079 -52.8631 -8.38352 1093.57 765.921 866.267 -51.6682 -16.1575 81.9286 -828.946 336.858
5199 1 -11.4671 -50.1811 -9.98456 1056.75 860.743 873.079 40.5741 -21.6718 78.2184 -829.324 246.692
5201 2 -15.5439 -52.6465 -8.50802 -273.75 -651.427 -570.406 -67.805 127.731 -115.061 -235.087 470.17
5203 2 -13.8065 -51.4462 -12.6449 -580.286 -230.287 -435.084 -37.302 -21.6444 137.741 -251.156 394.031
5204 2 -11.2406 -51.4937 -9.14335 -639.679 -524.186 -586.088 -85.0039 75.8307 42.8478 -255.864 233.36
5205 2 -13.0003 -50.0897 -10.5575 -359.682 -574.861 -485.644 -69.1463 160.867 -18.821 -248.953 357.917
5206 2 -12.8975 -52.8567 -7.8863 -58.0577 -581.328 -494.024 -100.573 -33.7959 80.6306 -244.724 537.611
5207 2 -13.6552 -54.0981 -12.9675 -531.637 -111.789 -399.218 98.4793 -24.5301 -188.48 -253.302 525.057
5208 2 -11.1811 -48.8049 -9.16717 -597.37 -153.577 -597.925 53.2488 25.973 43.8844 -248.073 462.067
5303 2 -13.5581 -48.719 -12.7738 -593.855 -93.6645 -349.852 94.0181 -44.3892 -239.232 -244.831 625.943
5212 1 -14.4195 -52.7447 -7.36604 967.317 893.547 985.971 -88.8055 -75.6811 12.7672 -848.777 220.221
5202 2 -10.5149 -50.1693 -11.2725 -393.581 -646.371 -388.36 32.372 -62.3636 -9.22095 -255.393 283.401
5106 2 -10.191 -55.4853 -11.425 -574.611 -590.514 -439.415 18.8638 -49.8092 98.4273 -250.286 241.361
2806 2 -18.144 -47.5222 -7.93864 -338.986 -643.251 -315.567 -2.20105 -132.815 -115.35 -251.247 439.434
5297 2 -15.5604 -47.4649 -8.58656 -290.755 -660.98 -584.37 -15.9264 26.5683 22.4301 -243.114 344.907
5308 1 -14.4516 -47.4211 -7.46438 739.017 1120.59 1076.83 -1.60073 -62.7742 46.4249 -846.655 386.147
29 2 -25.7129 -63.2718 -0.232539 -449.531 -454.617 -494.71 -45.7341 110.302 -44.8575 -249.736 225.051
27486 2 -25.6298 -60.6597 -4.49642 -334.786 -693.904 -579.872 -44.2433 -33.3511 -30.4176 -253.515 336.159
2524 1 -18.9831 -63.3613 -6.82111 982.574 897.175 809.978 52.554 42.8096 -84.7596 -844.17 240.165
2620 1 -18.9437 -58.0851 -6.59275 1116.3 956.769 908.882 68.0359 -17.1865 108.591 -838.934 292.46
25 1 -24.5599 -60.7383 -5.66511 1119.73 819.7 621.605 96.7855 16.1181 69.575 -823.316 481.762
26 1 -22.1291 -63.3934 -2.23609 984.463 719.146 928.943 74.5882 -156.166 -1.10621 -837.568 385.491
27 1 -22.0567 -60.6865 -3.87163 837.836 865.091 885.21 -10.3691 -186.076 -117.371 -830.967 383.692
30 2 -20.5037 -60.8257 -4.41514 -107.073 -511.793 -510.756 -57.2375 -162.158 39.0569 -246.977 506.626
31 2 -24.8139 -62.0848 -6.49203 -543.103 -276.858 -423.639 -3.20852 60.5592 117.962 -258.166 325.776
32 2 -22.3276 -62.0572 -3.0446 -627.99 -264.627 -598.67 56.081 -61.7644 0.800677 -251.51 378.312
33 2 -23.0422 -60.6809 -5.0755 -464.014 -609.648 -548.265 65.3173 0.156801 80.7825 -251.963 220.033
34 2 -23.2459 -63.5583 -1.01519 -384.79 -533.96 -369.096 16.0723 -193.705 -80.0297 -247.119 396.728
36 2 -22.1247 -59.3596 -3.02836 -564.493 -488.466 -505.161 97.004 14.1539 61.4465 -257.618 212.007
122 1 -21.9164 -58.0531 -2.14796 1099.23 808.913 1001.53 -121.763 -28.1088 -80.3727 -828.289 362.898
127 2 -24.7787 -56.7594 -6.49187 -595.231 35.3066 -273.866 119.392 150.052 284.921 -246.863 807.509
128 2 -22.3318 -56.7737 -3.05272 -495.92 -251.353 -557.162 -102.481 159.974 -103.144 -246.161 467.695
130 2 -22.9496 -57.9399 -0.891041 -322.382 -596.925 -546.551 -75.0406 -144.172 160.711 -248.249 469.91
131 2 -24.7257 -59.4317 -6.54564 -658.777 -617.996 -706.911 -104.501 -3.11006 84.9945 -258.262 245.775
2521 1 -18.9801 -60.8128 -4.9636 1019.96 907.566 1117.96 32.8935 -26.3417 -43.5282 -836.509 210.389
2525 2 -20.7082 -63.2917 -1.55805 -457.42 -565.358 -576.93 -53.6213 67.9163 -22.7954 -241.921 192.499
2527 2 -18.7078 -62.0623 -5.93441 -598.522 -310.14 -603.041 -11.9518 -46.3971 54.1976 -245.61 316.523
2621 2 -20.3858 -58.0018 -1.60554 -233.169 -517.216 -496.723 10.1066 145.807 -6.57504 -253.918 373.493
2623 2 -18.8811 -56.7244 -5.69735 -580.092 -288.891 -481.217 -32.1484 -35.0307 91.7801 -249.329 312.785
2627 2 -18.733 -59.4024 -5.76345 -592.307 -284.831 -500.412 109.308 -120.47 -108.521 -248.608 435.253
2632 1 -19.3748 -58.0784 -0.368926 884.13 960.359 1056.1 -5.48901 -97.7961 -124.617 -833.345 312.482
2536 1 -19.5726 -63.3951 -0.389411 1071.03 683.584 1191.16 31.2218 -24.5617 -69.0121 -848.373 479.698
2626 2 -17.8516 -58.2815 -0.832182 -471.386 -545.294 -549.257 36.4595 -78.7814 -23.4698 -247.503 173.294
2529 2 -17.8284 -60.8472 -3.81833 -198.245 -561.314 -569.533 -17.2228 133.933 20.947 -248.033 436.911
2531 2 -19.0085 -64.7378 -6.00857 -674.931 -298.251 -544.459 -54.103 -6.7153 5.90505 -253.446 344.653
35 2 -24.7698 -64.7829 -6.517 -525.686 33.1512 -401.335 56.0953 -35.554 -255.913 -247.229 684.088
2530 2 -18.0645 -63.5048 -1.00963 -234.745 -510.169 -570.153 -50.1985 -103.74 13.948 -241.334 369.334
2522 1 -16.5196 -63.5527 -1.45221 841.36 908.855 1004.37 41.3887 -130.795 5.23893 -856.348 276.892
2523 1 -16.3561 -60.9249 -3.19486 1083.22 1004.89 1143.03 54.029 -38.2263 109.149 -842.355 251.557
2526 2 -15.2209 -60.8246 -4.40408 -263.493 -592.485 -413.276 62.707 -198.552 -82.6586 -243.489 481.618
2528 2 -16.204 -62.2344 -2.31152 -595.827 -347.487 -598.731 24.7124 -23.9785 -45.2605 -244.232 268.523
2532 2 -16.1116 -59.5589 -2.2526 -504.912 -68.8395 -461.926 15.712 60.4178 240.301 -236.052 598.488
2618 1 -16.3959 -58.172 -1.44325 670.846 928.285 1030.42 22.0631 -44.7776 103.107 -851.237 377.315
2624 2 -16.2011 -56.898 -2.31391 -474.952 -355.541 -554.553 8.5135 -12.4713 -37.1948 -252.388 186.909
5017 1 -14.3147 -60.7774 -5.70722 1064.72 899.183 902.985 4.62108 9.43095 -78.1308 -845.896 213.146
5018 1 -11.9786 -63.4342 -2.28896 1252.53 1175.37 811.981 -89.2056 -83.6676 117.884 -837.024 502.602
5019 1 -11.8639 -60.7527 -3.91704 824.621 719.737 1046.89 88.9783 -170.856 18.2511 -849.884 442.766
5023 2 -14.49 -62.1393 -6.50415 -583.599 -315.421 -635.603 -75.2669 -44.417 57.6954 -243.75 348.526
5024 2 -12.2705 -62.0615 -3.08032 -628.249 -245.738 -582.492 -63.6084 75.0401 -60.748 -243.329 413.531
5025 2 -12.7524 -60.6992 -5.21156 -446.384 -533.983 -593.726 -31.137 93.7032 51.9425 -240.469 231.991
5026 2 -13.1375 -63.4115 -1.13308 -384.972 -598.705 -302.406 -39.0999 -91.2412 171.662 -247.943 433.718
5028 2 -12.0035 -59.4601 -2.98396 -705.14 -478.641 -564.632 14.68 83.9187 -24.6037 -244.014 250.617
5114 1 -11.8036 -58.0749 -2.28363 1249.89 932.294 814.837 -69.2378 -78.3399 -76.6613 -849.862 449.882
5117 2 -15.328 -58.099 -0.240519 -555.313 -712.659 -583.432 -74.0538 69.5945 -5.1725 -232.147 228.443
5119 2 -14.743 -56.7205 -6.62487 -539.451 -177.599 -452.287 14.038 -30.8864 127.554 -248.967 399.07
5120 2 -12.0471 -56.7467 -3.17375 -638.151 -133.719 -588.945 -9.70187 21.7176 -95.1459 -239.854 510.791
5122 2 -12.8754 -57.9618 -1.04905 -373.02 -672.481 -405.186 1.67139 -80.8166 -5.03901 -238.961 317.424
5123 2 -14.6269 -59.4547 -6.57966 -584.827 -136.778 -485.478 3.22917 -14.3929 -120.893 -245.896 458.915
7613 2 -10.2697 -58.0454 -1.71503 -171.777 -619.751 -360.927 -30.3797 204.278 -42.2515 -238.91 533.888
7517 2 -10.4837 -63.4026 -1.67145 -270.242 -611.12 -467.595 -33.8662 133.922 -67.8297 -247.34 398.65
5022 2 -10.3258 -60.79 -4.31906 -376.641 -510.373 -620.56 18.5078 -81.3206 -33.6696 -240.887 262.733
221 2 -25.6802 -52.8434 -0.244817 -546.054 -556.541 -643.224 2.22748 57.9678 26.9522 -246.19 144.249
227 2 -24.576 -54.0797 -6.69786 -603.686 -427.727 -528.432 44.9494 -99.8145 -81.1817 -248.042 281.255
2716 1 -19.1525 -52.6167 -6.64264 1204.66 1096.03 930.875 46.8483 -165.195 -153.944 -840.116 465.368