ITEM: TIMESTEP
580000
ITEM: NUMBER OF ATOMS
29952
ITEM: BOX BOUNDS pp pp pp
-2.5615833775063237e+01 3.5601128117061187e+01
-8.0744236206269946e+01 9.0729530540468687e+01
-2.1035324467156940e+01 3.4903177627851115e+01
ITEM: ATOMS id type x y z v_StrAtomXX v_StrAtomYY v_StrAtomZZ v_StrAtomXY v_StrAtomXZ v_StrAtomYZ c_PEAtom v_VMS
2400 2 -19.5245 -66.6707 -18.072 379.169 -321.478 -343.662 -222.967 501.839 -87.203 -275.645 1197.67
4901 2 -20.9752 -66.1836 -14.7967 5.50956 -576.415 -621.866 -95.2946 37.4211 -128.792 -273.729 669.595
4904 2 -18.4124 -66.3104 -15.6289 -103.122 -538.21 -499.142 -420.592 58.6069 125.052 -312.31 872.778
2316 2 -21.8883 -66.1496 -17.2134 -491.784 -515.235 -397.633 -10.6806 -197.482 -159.77 -272.718 453.366
2494 2 -21.8995 -66.2775 -19.9291 -13.6957 -367.825 18.9972 -104.445 667.413 -159.003 -268.175 1258.15
4912 1 -19.4542 -66.0712 -14.3346 599.993 643.491 1136.04 190.458 232.257 -181.997 -758.536 797.458
4898 1 -17.1771 -67.1374 -14.6418 378.224 1020.41 1345.06 421.283 -79.5064 38.6204 -743.496 1132.32
4896 2 -16.0301 -69.9551 -17.5975 -392.11 191.938 -529.084 -47.0449 28.307 39.5949 -165.203 673.514
7392 2 -12.0095 -69.4032 -14.7129 232.506 -510.163 -954.33 -115.771 133.751 94.377 -268.03 1095.13
4990 2 -16.7561 -67.3705 -17.2799 217.143 -202.285 -643.376 -506.291 276.388 -82.1023 -269.829 1254.54
7481 2 -14.3173 -68.5243 -16.196 63.8849 -160.161 -810.895 -146.886 325.045 -152.422 -277.431 1034.81
4812 2 -16.7612 -68.5532 -15.2729 -319.978 -11.8686 -767.025 -207.73 -131.167 227.279 -256.146 876.675
7396 1 -13.24 -68.4406 -15.0719 355.117 205.876 2074.53 121.664 -215.941 64.2214 -739.962 1852.55
4982 1 -15.9023 -68.7179 -16.7141 988.014 457.129 1644.47 196.67 -172.887 -47.8888 -816.073 1128.66
7486 2 -11.8601 -67.3876 -15.437 110.778 -369.877 -1169.15 -155.871 76.2231 -72.4662 -298.999 1166.24
7478 1 -10.6867 -68.5361 -14.6494 437.542 208.611 2104.46 1.07965 -46.1076 182.884 -738.498 1821.91
4900 1 -18.0943 -66.3888 -17.3434 1182.79 776.398 1049.98 163.989 -124.292 396.683 -744.403 853.179
7397 2 -15.9178 -66.1959 -14.3471 179.938 -390.98 -623.788 171.507 183.143 23.608 -281.842 838.809
2486 1 -21.0376 -65.956 -18.5709 1184.55 940.115 1087.03 28.2882 -36.3475 -94.7724 -768.787 280.591
2410 2 -23.7028 -65.8433 -15.1147 137.355 -481.472 -525.557 -290.199 -368.543 -67.4498 -269.877 1042.08
2416 1 -25.1249 -65.5334 -14.3787 576.24 849.073 1259.96 -321.394 -142.738 48.6757 -771.773 856.436
2402 1 -22.1901 -65.6903 -15.7341 628.337 650.003 1090.42 202.338 202.14 209.098 -790.976 761.94
2407 2 -23.6507 -64.4432 -19.7509 -300.217 -423.117 -130.067 -222.099 -290.242 184.654 -269.499 753.632
4985 2 -20.5995 -64.3743 -18.7565 -531.443 -131.847 -526.811 10.5566 -30.8678 -132.773 -276.25 462.522
2408 2 -22.0022 -64.1253 -15.7901 -460.74 -666.169 -765.554 -130.918 -60.7724 36.6424 -264.427 372.855
2401 1 -24.5307 -63.464 -18.7769 897.565 1042.89 882.422 145.656 -61.036 170.878 -793.873 431.244
2409 2 -23.6332 -63.0498 -17.4808 -512.377 -523.718 -388.807 -41.4406 32.0279 19.6711 -266.484 161.832
4897 1 -20.3032 -62.807 -18.5098 392.029 708.488 851.482 -6.26511 63.0776 338.892 -785.011 722.801
2403 1 -22.473 -62.7326 -16.4205 821.143 373.254 850.345 32.3793 226.374 -286.909 -789.394 786.363
2406 2 -21.2055 -62.3136 -17.307 -516.891 -496.637 -585.854 -79.5064 -45.3493 85.3696 -270.838 231.431
2412 2 -22.8655 -61.6732 -15.3966 -546.716 -598.074 -795.286 113.667 -15.3007 -76.1824 -267.812 329.443
2 1 -22.5516 -60.2229 -14.8017 804.218 589.946 993.03 9.60091 307.185 -94.1858 -806.005 657.264
11 2 -24.7996 -62.1567 -19.605 -528.902 -453.939 -586.099 -9.11821 -79.0939 -68.2132 -270.051 214.836
4905 2 -18.8023 -62.7236 -18.1834 -724.865 -590.327 -669.846 -20.2886 -63.5113 -62.2259 -272.763 196.666
2501 2 -21.0582 -60.2793 -14.2069 -418.766 -474.07 -629.381 -101.52 -61.465 39.5752 -265.218 287.612
2507 2 -20.541 -61.9115 -19.7948 -538.411 -331.101 -573.358 112.345 -118.385 -77.677 -266.845 386.592
2500 1 -19.868 -60.63 -20.5617 674.811 820.351 726.668 46.2966 -9.96594 -50.77 -786.458 175.455
2506 2 -18.4358 -60.9145 -14.8892 21.3619 -382.975 -518.016 -173.331 -117.195 88.4197 -268.904 625.392
2503 2 -19.8926 -59.3581 -19.6195 -541.38 -287.908 -329.143 92.7785 40.9239 191.985 -271.071 443.756
7308 2 -10.253 -67.5918 -13.3903 -433.744 89.5295 -826.844 311.279 261.46 258.282 -253.454 1153.23
7 2 -24.3204 -59.6152 -20.0971 -411.37 -429.769 -584.562 147.853 185.874 60.6986 -258.147 455.444
4941 2 -18.231 -62.6207 2.08434 -598.572 -689.225 -571.881 114.611 125.883 -77.987 -225.839 341.383
7444 1 -14.0289 -66.0059 6.28396 1054.61 1173.27 1282.93 -209.946 -53.9114 -136.491 -855.172 485.757
7429 1 -14.9022 -62.9785 2.10302 899.972 826.618 1090.22 -354.507 -79.3535 111.133 -868.158 698.928
4 1 -24.7131 -61.0371 -20.7306 791.998 759.962 779.681 163.085 -97.5708 70.2138 -801.724 352.028
7394 1 -11.8205 -65.7525 -15.3154 760.689 162.371 1461.29 22.2674 -145.004 310.517 -759.374 1273.51
7402 2 -13.2102 -65.459 -14.4892 4.06532 -457.195 -926.192 -11.6072 18.5002 132.67 -274.139 838.62
5003 2 -14.1728 -62.0142 -20.2099 -365.89 -283.64 -547.11 155.933 -91.8847 -108.362 -275.98 433.603
4903 2 -17.6408 -64.859 -17.5274 -490.522 -341.711 -739.406 75.4453 -19.4662 -66.7739 -280.946 390.786
7400 2 -12.1465 -65.0837 -16.7023 -442.548 -481.111 -715.084 -101.629 326.163 -227.542 -272.996 755.455
7401 2 -13.8582 -64.0755 -18.7487 -240.624 -513.471 -110.069 39.2371 435.222 -103.362 -275.777 855.591
7398 2 -11.2792 -64.0244 -18.8496 -13.9561 -587.58 -401.737 -83.3901 -351.338 -75.0965 -258.545 815.521
7395 1 -12.5265 -63.9621 -17.7468 926.486 914.023 1166.21 56.6149 -67.8296 580.925 -783.919 1047.12
7393 1 -14.9398 -63.3591 -19.6617 791.94 941.363 837.765 37.8144 -111.291 324.995 -774.829 613.101
4899 1 -17.424 -63.3142 -17.6547 641.467 463.5 1016.9 -81.5694 -71.7168 -68.0615 -783.42 537.328
4908 2 -17.0243 -62.6853 -16.2841 -453.062 -332.353 -629.197 60.3842 6.85285 79.0796 -273.902 310.959
7404 2 -12.4364 -62.6221 -16.7662 -313.275 -209 -84.4112 120.74 122.381 353.659 -269.094 709.421
4902 2 -16.1973 -63.0154 -18.7182 -186.057 -461.397 -489.508 76.3772 -238.826 -150.245 -270.074 583.675
2498 1 -16.9061 -61.3783 -15.3386 911.342 935.583 956.312 -114.354 -76.2134 -136.639 -792.063 337.916
2504 2 -16.4184 -60.0903 -16.2028 -526.3 16.7735 -478.692 -11.4097 105.852 -204.001 -264.118 655.892
4994 1 -12.1709 -61.5334 -15.5496 697.602 875.439 1344.23 -46.2726 -37.0115 -44.3113 -810.786 592.604
5000 2 -12.0322 -60.0321 -16.2863 -420.224 137.939 -594.89 36.0509 75.5547 -224.067 -251.843 781.785
4999 2 -13.5911 -59.4719 -19.6149 -573.092 -397.521 -644.925 3.33677 -28.1592 115.16 -262.686 301.322
5002 2 -13.325 -61.3838 -14.4668 -499.43 -423.486 -381.511 -31.7239 -115.492 158.597 -263.784 359.458
7493 2 -10.8677 -61.8236 -14.69 -385.796 -439.196 -478.966 76.1191 345.027 6.4222 -255.658 617.41
4996 1 -14.1861 -60.4719 -20.6708 631.95 657.124 1119.61 -107.836 37.2812 -164.235 -781.516 588.337
4997 2 -15.9223 -61.6494 -14.1051 -167.287 -549.836 -485.186 -19.5851 158.451 2.49886 -264.013 449.756
5036 2 -11.9549 -59.3685 5.69063 -585.503 -410.173 -449.741 121.915 -134.821 -111.537 -227.985 402.257
4906 2 -18.3871 -67.1278 -13.598 132.781 -469.987 -812.937 -200.991 -5.49029 -45.9921 -250.203 902.935
4913 2 -21.3068 -66.5713 -6.9508 -239.129 -635.333 -142.595 -17.6378 321.589 -68.3725 -240.703 727.846
7399 2 -13.9123 -67.6317 -13.7996 -434.809 -209.013 -628.128 -231.345 -241.541 321.744 -269.51 882.13
7408 1 -14.3956 -66.1223 -13.6808 700.569 625.858 1243.84 -4.07342 249.161 -313.94 -784.293 907.35
7320 2 -12.2397 -66.7793 -9.68303 -440.057 -48.4344 -67.1914 28.7299 -41.4699 -35.711 -169.083 397.285
9905 2 -11.2659 -66.4671 -7.04387 -24.7994 -392.228 -885.932 214.601 278.912 386.277 -235.423 1174.44
7409 2 -16.4034 -66.4472 -7.38245 49.9907 -532.814 -416.262 149.683 145.687 -15.613 -232.153 645.708
7406 1 -12.3135 -66.1949 -8.23872 903.855 591.911 1653 -264.204 -91.1462 122.997 -824.339 1082.56
2512 1 -19.6347 -60.8233 -13.8189 779.438 912.276 1051.19 196.588 -78.4985 -78.317 -807.462 456.313
10 2 -23.6029 -60.0206 -13.6458 -498.935 -509.415 -562.385 77.0703 -217.62 -125.992 -254.63 459.334
4915 2 -19.307 -64.8115 -13.471 -669.429 -584.986 -333.758 27.5096 -121.32 244.148 -264.214 562.771
2428 1 -25.2878 -65.6218 -6.96601 632.167 1115.17 828.815 -74.5543 15.1913 -61.763 -821.107 453.641
2422 2 -23.8593 -65.577 -7.62341 -176.202 -388.831 -800.022 -76.9418 -37.3557 -34.178 -261.499 571.989
2414 1 -22.2703 -65.5226 -7.79892 882.323 1220.63 992.586 3.24593 8.96454 254.203 -795.22 532.386
2404 1 -23.0787 -65.5095 -20.9031 1434.83 786.044 1403.74 -34.4041 -75.2453 23.9953 -770.157 651.14
2328 2 -21.9324 -65.2154 -9.34692 -718.162 -378.132 -251.238 22.2289 -126.135 -209.618 -253.437 596.575
2419 2 -24.9788 -64.5506 -13.1545 -458.131 -318.327 -104.937 106.762 135.136 242.34 -270.276 600.065
16 1 -24.9388 -60.5865 -12.9186 1050.43 984.482 1009.03 86.585 148.775 -217.553 -817.057 483.956
2415 1 -21.8315 -63.9313 -10.292 1081.45 1210.39 573.177 44.1815 217.611 262.474 -820.553 833.725
2421 2 -23.204 -63.9578 -11.1701 -315.608 -599.62 -258.407 71.4331 181.185 83.2756 -256.344 484.539
2418 2 -20.6097 -64.0916 -11.3469 -608.76 -603.013 -369.112 -83.3014 -173.914 79.4975 -253.455 431.975
4909 1 -19.4832 -63.637 -12.3274 904.46 965.705 763.178 1.51742 238.418 -145.754 -818.724 516.365
2413 1 -24.627 -63.5991 -11.8201 972.101 1014.19 912.11 -0.584682 56.0394 -12.7025 -819.155 133.422
23 2 -24.7099 -62.0605 -12.2462 -513.353 -105.097 -505.152 -111.099 -8.66851 -14.0154 -261.282 448.592
2424 2 -21.6814 -62.6038 -9.37481 -504.634 -373.861 -218.574 -12.1858 -48.3207 218.16 -256.402 460.169
14 1 -21.9911 -61.6278 -8.10541 1153.21 1027.41 1059.84 129.525 84.0107 -196.596 -845.762 447.495
20 2 -21.932 -60.1347 -8.74938 -602.906 -127.818 -365.131 50.6537 -130.536 -207.3 -243.528 597.51
2519 2 -19.866 -62.3132 -13.1783 -528.887 -321.207 -345.41 13.0571 -64.0399 -190.947 -257.994 401.108
2515 2 -19.2317 -59.8217 -12.5851 -701.688 -438.099 -429.586 -11.2106 -79.1954 150.053 -247.521 398.165
22 2 -23.4433 -62.018 -7.48061 -399.485 -437.255 -357.032 16.156 -331.364 12.7556 -245.784 579.233
4918 2 -18.8823 -65.5201 -7.07684 -127.495 -459.224 -516.818 60.6001 -383.042 -15.9789 -259.368 764.47
2420 2 -21.4266 -64.3773 -6.85407 -45.7567 -714.551 -186.351 -4.33416 248.403 -0.81095 -231.127 747.124
9893 2 -10.3636 -65.5853 -14.7015 -12.1425 -373.277 -811.727 -290.082 116.4 47.8368 -273.418 883.714
5032 1 -14.9608 -60.2437 0.718344 1377.36 789.49 996.259 -121.299 -168.163 -295.86 -847.182 811.398
7499 2 -10.1023 -61.9281 -19.6914 -621.944 -342.898 -665.999 -18.7039 58.8817 11.6065 -263.595 322.422
4917 2 -18.1635 -63.3799 -11.4535 -365.736 -593.463 -222.842 -8.2522 231.054 186.418 -254.401 607.812
7414 2 -13.7602 -65.5948 -7.7881 81.7466 -231.404 -824.31 -185.608 -149.461 2.74521 -264.402 897.585
7420 1 -15.1502 -65.3358 -7.05462 700.995 1238.21 1231.74 6.3641 39.3992 -136.927 -805.369 588.381
4910 1 -17.5086 -65.3715 -7.86698 586.035 1222.66 1082.27 -30.9007 203.326 -64.6515 -806.357 689.243
5008 1 -14.5019 -61.3953 -13.3579 1005 958.554 858.933 36.4718 -124.856 -92.2849 -812.461 304.985
2516 2 -17.5705 -59.854 -8.18973 -588.025 -187.189 -439.3 74.5209 -183.856 -224.438 -241.946 626.387
7411 2 -14.5792 -65.2053 -12.3474 -578.041 -115.724 -275.298 7.5121 -42.6003 505.368 -258.035 968.107
4824 2 -17.7831 -64.8012 -9.35102 -593.452 -254.546 -387.253 -60.6487 -157.764 -340.753 -243.894 722.174
7412 2 -11.2468 -64.7731 -8.39445 -180.493 -611.103 -76.1722 126.894 454.886 -156.447 -265.034 991.831
4920 2 -17.4806 -62.2302 -9.05637 -551.161 -556.228 -160.413 105.749 -57.8815 299.013 -250.167 683.02
7405 1 -14.3812 -63.9092 -11.3635 896.994 1175.01 929.706 -18.7961 98.7773 -133.273 -825.994 391.001
4914 2 -15.6972 -63.6258 -10.4928 -309.8 -528.177 -523.634 -155.129 -121.976 60.7999 -254.555 417.895
7413 2 -13.0449 -63.9213 -10.4627 52.4701 -704.669 -211.701 112.859 316.377 67.9024 -256.347 891.829
4911 1 -17.244 -63.4191 -10.0996 1087.39 1152.13 885.637 82.173 112.535 27.6442 -827.482 344.236
7407 1 -11.5074 -63.7669 -9.80911 1112.09 1075.12 819.067 -100.868 224.735 -165.028 -811.688 583.216
5015 2 -14.2839 -62.5866 -12.3278 -607.35 -214.404 -538.181 -0.565284 -0.136606 -44.2073 -254.686 371.316
5006 1 -11.7195 -61.3282 -8.01518 1074.95 740.32 837.637 18.3345 -88.1411 -138.668 -828.752 413.381
5012 2 -11.6219 -59.8995 -8.68905 -552.149 -458.766 -287.458 82.953 -43.853 -235.089 -250.91 496.263
2510 1 -17.2837 -61.3779 -7.65564 1023.83 1202.26 1076.45 -87.2853 215.788 -181.488 -840.922 535.334
5011 2 -14.6929 -59.9569 -12.5864 -485.526 -124.151 -277.202 -98.8576 -90.8754 288.938 -258.679 635.025
7416 2 -11.3391 -62.339 -9.2139 -622.219 -681.615 -568.829 53.8623 -0.164121 36.5425 -249.369 149.195
4916 2 -16.3205 -64.2505 -7.45806 55.7533 -758.181 -638.992 19.4948 -60.4861 85.9466 -238.109 783.556
5014 2 -13.2362 -61.6961 -7.50534 -213.399 -476.799 -468.52 102.903 -163.351 47.4948 -249.78 431.106
5009 2 -15.7877 -61.3708 -7.04428 -612.156 -758.557 -571.882 -19.6026 -16.0435 110.754 -242.485 260.145
5030 1 -12.2994 -60.8877 6.0735 1055.28 1115.31 962.135 8.65271 17.9427 -147.398 -884.653 290.24
4942 2 -17.2998 -65.1458 5.64689 -590.187 -700.976 -385.141 -316.865 -176.871 161.708 -222.779 741.986
7431 1 -12.1434 -62.8314 3.62458 923.701 1032.91 1332.68 141.713 -11.6908 -8.07283 -868.151 442.017
4836 2 -18.1344 -64.8598 3.0233 -949.1 -599.214 -824.812 21.0349 -74.3474 193.974 -224.73 474.519
7332 2 -12.2999 -67.0781 -1.6007 -479.214 -109.997 -312.242 31.9205 -34.2697 -89.4761 -128.067 364.897
7418 1 -12.5577 -66.131 -0.403995 1337.34 1093.27 1434.41 -25.564 1.42999 360.695 -927.506 696.39
7426 2 -14.1472 -66.0762 0.0748313 -14.9405 -553.582 -625.866 -161.026 -20.3777 -105.572 -212.266 668.405
2513 2 -20.9199 -61.652 -6.89637 -327.319 -844.894 -198.368 -119.157 226.952 77.2913 -235.043 752.524
2518 2 -18.3011 -61.903 -6.52165 -332.7 -446.889 -279.942 109.042 -308.381 26.6257 -246.241 587.317
28 1 -24.7227 -61.6197 -6.55247 1199.67 902.26 995.366 99.1542 104.966 -31.8513 -846.753 367.453
4924 1 -20.2984 -65.5087 -6.25776 1072.82 1236.34 764.241 -194.921 -63.2464 38.4122 -802.211 550.296
2431 2 -24.9594 -65.4537 -5.43942 -704.265 -239.12 -509.381 84.5547 75.1871 215.326 -240.724 584.118
4927 2 -19.9639 -65.0569 -4.75671 -628.216 -332.076 -79.3682 181.506 -13.0599 371.395 -256.869 859.967
2432 2 -23.2526 -64.5359 -0.862529 -587.956 -292.618 -0.056729 91.7833 -307.006 -217.08 -261.79 841.798
2433 2 -23.7711 -64.1328 -3.43258 -612.102 -710.665 -203.53 -99.0155 89.8245 -12.9963 -239.938 520.615
2425 1 -24.9753 -64.1235 -4.45439 1075.55 1405.87 557.723 21.0025 135.217 -234.541 -843.831 877.212
2430 2 -21.2862 -63.8711 -2.62245 -337.925 -541.899 -276.861 50.5322 -425.317 72.1592 -246.875 789.782
4921 1 -19.9057 -63.9228 -3.58334 1176.7 1244.57 1031.39 -225.508 70.905 -140.286 -830.575 512.122
2427 1 -22.7886 -63.7332 -2.18652 1135.55 992.63 799.958 43.8747 301.68 16.0287 -841.881 603.872
2531 2 -19.9476 -62.491 -4.48869 -574.217 -178.586 -227.756 29.4125 -62.066 -248.03 -245.77 581.547
2436 2 -23.0828 -62.132 -2.04827 -674.862 -177.177 -561.233 -44.7639 -68.5723 -99.159 -242.633 503.653
2524 1 -19.7317 -61.5491 -5.75605 1351.55 968.807 998.677 -129.658 156.468 5.86536 -849.125 509.836
2527 2 -19.6939 -59.9788 -5.37865 -583.674 142.676 -514.164 22.9532 -77.4635 123.263 -239.161 739.657
31 2 -24.4021 -60.1209 -6.02382 -644.4 40.8376 -484.659 70.0718 -66.3446 14.5609 -252.944 643.567
26 1 -22.846 -60.5454 -1.8632 924.236 847.844 913.021 -36.5291 347.08 110.803 -838.607 638.226
34 2 -23.9979 -59.9616 -1.01387 -620.376 -638.077 -526.11 80.5921 -62.3482 -68.7949 -249.147 237.094
32 2 -22.7784 -59.6641 -3.22991 -657.523 -334.48 -611.393 69.0659 -46.0631 -89.8803 -239.764 369.451
2525 2 -21.3629 -60.3566 -1.25915 -107.472 -499.729 -638.738 10.8364 -44.6407 -20.3681 -244.561 485.069
35 2 -24.9618 -62.7714 -5.40919 -680.054 4.12005 -291.637 8.36678 -188.678 -211.801 -245.282 771.235
2536 1 -19.9075 -60.5888 -0.532319 1048.84 990.229 1060.83 -71.847 124.751 54.304 -849.71 274.414
2530 2 -18.58 -60.526 -1.41127 -208.703 -561.444 -563.791 0.916613 -132.127 25.9226 -242.534 423.852
4929 2 -18.5918 -63.9902 -2.67968 -99.5916 -526.81 -380.606 68.0569 201.975 -17.0344 -245.873 527.804
7505 2 -10.6413 -61.5282 -6.89177 -340.373 -542.367 -578.069 25.4002 99.4784 104.286 -252.597 336.954
7517 2 -10.9484 -60.6991 -0.464629 -346.356 -691.545 -644.784 -19.4685 44.1876 -25.2952 -228.263 337.809
5020 1 -14.3901 -61.4306 -6.40482 611.757 1028.79 1007.7 -55.4041 21.0973 -38.99 -847.596 425.054
7422 2 -10.94 -63.7637 -3.18944 -455.658 -748.224 -408.398 27.4267 -179.06 18.7776 -235.252 448.505
7423 2 -14.7841 -65.0602 -5.48965 -636.284 -461.519 -117.618 152.753 46.4702 305.993 -236.752 752.52
7424 2 -12.3458 -64.5492 -0.939194 -564.633 -338.143 -337.284 68.2751 -60.4066 -324.41 -211.916 626.219
4928 2 -16.3654 -64.9474 -1.2148 -418.047 -380.964 -112.98 -120.825 217.384 -343.939 -234.389 789.666
7425 2 -13.5424 -64.0404 -3.28121 -264.021 -697.418 -242.475 45.9237 183.211 89.2558 -230.757 573.203
4926 2 -16.1242 -63.8671 -3.61643 -492.678 -629.949 -418.66 161.399 -192.277 -3.2537 -244.283 472.836
4923 1 -16.975 -63.8389 -2.27402 1237.61 972.55 927.729 -198.237 196.922 -31.8695 -844.771 566.938
7419 1 -12.2563 -63.6624 -2.2942 985.44 1326.75 1102.07 30.9118 186.288 -10.6608 -874.902 444.527
7417 1 -14.7166 -63.8723 -4.37085 1120.43 1336.65 673.551 -147.283 263.13 -258.879 -851.913 903.836
2528 2 -16.4407 -60.0701 -2.79171 -594.94 -472.135 -628.415 9.02021 -20.4588 -165.743 -244.86 322.838
4932 2 -16.8442 -62.3948 -1.61309 -676.343 -712.934 -601.373 120.466 -76.6884 -7.92965 -245.043 266.591
5027 2 -14.3945 -62.5523 -5.29101 -567.366 -442.856 -403.759 139.04 -217.36 -10.2494 -245.953 471.112
7428 2 -12.3768 -62.0835 -1.90609 -606 -475.127 -618.577 -39.1742 -69.7837 -8.64347 -230.981 195.88
5023 2 -14.1111 -59.9129 -5.82329 -614.479 -206.641 -538.067 89.8552 -56.3331 167.492 -236.537 508.832
2522 1 -16.9677 -60.8579 -1.53627 1024.81 583.58 736.112 -163.256 -5.6297 3.38331 -849.503 480.352
5018 1 -12.3876 -60.6875 -1.19189 848.948 971.235 877.412 -130.965 89.3449 -92.6397 -868.303 336.798
5024 2 -12.3565 -59.4053 -2.17062 -604.048 -612.476 -542.334 79.8379 -27.157 10.647 -238.352 161.476
5021 2 -16.2213 -60.2917 -0.29918 -488.187 -624.348 -666.893 30.4365 89.8414 45.8404 -241.228 243.804
5026 2 -13.5958 -60.5015 -0.203854 -328.161 -594.437 -422.22 76.9946 -133.196 -1.89787 -240.486 354.575
2434 2 -24.8924 -66.2986 0.509233 -65.5009 -624.31 -516.563 -116.668 -456.198 -169.087 -244.886 1007.28
4930 2 -19.2564 -66.6766 1.76695 77.6463 -552.264 -667.346 -150.319 236.834 -129.553 -236.434 876.888
4925 2 -22.1771 -65.9906 1.03489 220.697 -377.556 -585.19 -214.064 249.398 33.3066 -255.432 923.381
4955 2 -17.9509 -67.1448 6.19995 -510.75 -534.749 -354.735 -137.235 -284.052 155.452 -207.843 632.229
9917 2 -11.5245 -66.2585 0.906726 -211.215 -481.47 -337.729 -14.7265 413.92 -45.7999 -209.317 758.805
4940 2 -17.103 -66.9548 3.62557 -697.015 -550.177 -234.765 45.2025 273.14 -8.32391 -232.756 630.488
4934 1 -16.7584 -66.6199 5.14158 883.927 1006.29 1071.8 330.837 -160.343 -19.3131 -840.626 658.701
7433 2 -15.2506 -66.664 5.5059 -353.038 -456.778 -758.003 219.891 113.009 -104.736 -243.933 590.784
7344 2 -10.9367 -66.3452 3.50677 -596.802 -553.313 -359.962 26.1805 -59.2742 32.88 -216.297 252.04
4922 1 -17.7824 -66.2583 2.32132 1294.4 672.3 1045.34 15.9247 30.3402 57.4631 -855.651 554.555
7438 2 -12.5099 -66.1269 5.6802 159.238 -493.761 -716.308 82.2992 -179.353 -108.058 -230.336 879.267
7421 2 -16.6582 -65.9197 1.26292 -432.582 -408.275 -568.584 190.671 -240.25 -163.596 -233.837 620.412
2534 1 -17.6895 -61.3208 5.73228 1164.75 967.161 808.655 -183.468 134.87 -22.2909 -875.27 502.521
2426 1 -23.5565 -65.4431 0.474082 848.459 843.148 1232.14 64.1167 293.461 -91.2319 -788.93 667.037
40 1 -25.0459 -60.5199 0.0851843 1172.13 919.983 802.414 -14.2022 134.551 -3.23789 -829.06 402.486
2543 2 -19.9695 -62.001 0.226195 -577.668 -575.422 -598.365 40.261 -58.6449 -188.623 -238.59 349.852
2459 2 -25.2642 -65.9136 5.46056 -521.591 -629.236 -475.822 95.3965 58.0883 89.4927 -232.737 282.949
4943 2 -21.006 -65.7399 3.37513 -799.868 -564.813 -424.503 -16.6459 32.8369 -39.6237 -237.904 341.605
4937 2 -19.9342 -65.7093 5.75256 -687.963 -665.627 -701.287 138.019 -52.8252 -19.2894 -235.281 260.018
4936 1 -20.643 -65.8089 1.79149 1348.97 761.963 1293.95 23.2089 -5.87384 -71.5841 -830.695 576.544
2446 2 -22.6581 -65.625 5.47308 -204.949 -701.066 -457.968 -24.8687 -180.985 32.2308 -219.072 536.527
4948 1 -18.5612 -65.6804 6.51394 945.834 995.757 629.433 427.717 181.575 -232.528 -846.154 963.504
2539 2 -19.8578 -59.5226 0.691752 -693.48 -499.192 -342.482 -3.38081 -102.701 124.225 -235.931 413.189
5013 2 -13.4573 -59.1166 -10.4221 -67.7566 -487.434 -500.063 89.6175 226.735 79.8552 -248.067 615.662
2540 2 -17.71 -59.8956 5.0014 -700.955 -488.098 -651.267 -9.58149 3.81654 -35.7578 -229.074 203.361
2442 2 -20.6393 -62.2833 2.71091 -841.513 -547.716 -703.577 -47.0883 -88.4502 10.2717 -227.934 308.637
2438 1 -21.1478 -65.2708 4.86984 1193.79 1147.82 701.638 135.114 -162.59 81.0121 -863.822 612.75
2445 2 -23.0497 -62.8563 2.79691 -642.725 -562.396 -626.919 -167.853 203.487 14.8255 -243.483 463.505
4933 1 -19.7251 -62.8385 1.54517 995.47 787.221 938.2 3.58105 77.0253 353.626 -855.774 653.997
47 2 -24.4053 -61.8478 0.732369 -617.94 -92.2565 -538.238 -6.23446 47.0929 -223.211 -259.289 630.108
2452 1 -24.0407 -65.0372 6.05649 931.46 1584.78 842.732 -71.7548 36.9174 -250.931 -890.404 837.318
46 2 -23.8899 -60.6943 6.50378 -776.659 -651.176 -464.029 84.9469 -198.517 -197.281 -234.173 575.228
2443 2 -24.4929 -64.5023 1.60644 -87.4291 -370.496 -739.983 -20.3564 -466.199 -147.772 -287.918 1019.81
4939 2 -20.1766 -64.3482 1.34011 -619.515 -530.006 -776.628 170.565 -90.6921 18.4564 -243.192 399.668
2441 2 -24.2309 -63.5527 5.45758 -475.633 -320.699 -165.604 2.63317 -75.0835 -37.5312 -158.852 305.365
2444 2 -21.2621 -63.6376 4.7554 -738.659 -363.533 -492.797 -186.527 159.171 -34.0366 -228.115 541.107
2437 1 -24.3958 -62.8711 1.99461 838.457 681.462 1185.49 -67.5344 186.96 -225.348 -811.478 685.893
2439 1 -21.8251 -62.4859 3.78057 1315.78 573.45 974.595 208.52 -41.2798 -432.852 -869.664 1054.43
2448 2 -22.2054 -61.2082 4.55154 -825.722 -747.338 -737.691 -60.5442 9.02155 55.8179 -234.484 166.076
38 1 -22.5084 -60.3525 5.84223 1186.66 1224.42 637.638 124.491 292.442 -49.5401 -856.828 796.245
43 2 -25.3234 -59.475 1.25138 -632.352 -623.186 -329.404 8.72688 -87.2236 82.9436 -247.401 364.385
7430 1 -11.1996 -65.5787 4.90497 792.904 988.022 1429.08 -51.3066 -29.6585 302.904 -880.845 777.466
4944 2 -18.0718 -62.4184 4.60098 -659.651 -292.308 -429.807 120.192 -100.173 349.074 -231.845 736.436
5033 2 -16.2417 -61.5565 6.34368 -481.042 -606.829 -509.693 166.313 69.081 80.1986 -229.781 360.043
7434 2 -10.9541 -62.2309 2.70409 -273.765 -582.116 -641.686 62.258 -93.5397 -92.9326 -227.69 425.187
4935 1 -17.5864 -63.3658 3.36885 893.849 1100.72 1202.52 -236.846 14.3214 -66.5043 -862.074 506.349
7436 2 -11.54 -64.0865 4.45493 -517.077 -607.289 -716.735 17.5069 123.982 -248.476 -224.297 512.099
7435 2 -15.1456 -63.8487 0.813508 -751.138 -425.937 -681.285 225.102 55.73 -8.57601 -230.663 499.469
7437 2 -13.4658 -63.2283 2.74603 -250.746 -493.38 -509.286 71.2524 268.513 -74.4266 -236.799 557.79
5039 2 -15.1386 -61.4253 1.85577 -625.499 -431.755 -415.708 41.1504 -62.141 -151.958 -235.881 356.148
7432 1 -15.5641 -65.2828 0.190493 1433.44 993.641 1136.43 -164.598 88.2535 39.7244 -868.921 510.288
7440 2 -12.4184 -61.7391 4.75828 -672.859 -557.15 -633.032 54.9683 147.645 126.417 -228.571 364.378
4938 2 -16.0446 -63.4574 3.13769 -666.276 -620.952 -723.01 87.1467 -193.887 -37.3946 -228.227 384.187
2590 2 -18.3333 -60.9198 -20.8195 -277.06 -492.367 -597.378 66.8115 -38.9758 12.8756 -276.575 313.751
7410 2 -10.3236 -63.9889 -10.7959 -293.359 -749.891 -480.837 121.876 -34.8666 -40.1832 -256.911 459.382
9928 1 -10.3355 -66.1123 2.01621 1586.44 978.343 1252.07 -104.109 -91.205 -68.6875 -899.457 591.506
29898 2 -25.6704 -62.4909 2.81685 -754.566 -444.561 -741.749 -12.905 -134.933 224.961 -254.474 547.025
2542 2 -18.8196 -61.221 6.83325 -513.448 -612.979 -618.999 -117.563 -4.56697 196.84 -231.284 410.25
5081 2 -15.7382 -60.1617 -20.9571 -213.258 -545.829 -725.433 20.4796 104.11 -112.602 -275.72 523.836
7529 2 -11.0308 -61.3159 7.00091 -249.784 -706.535 -423.075 -22.6207 191.9 109.358 -223.561 554.427
7451 2 -14.1088 -66.3166 7.9444 -580.699 -684.239 -176.132 13.2102 -97.9137 354.271 -200.077 788.728
4951 2 -18.8992 -65.0506 7.90454 -679.859 -386.948 -468.242 -157.742 -290.718 40.1119 -246.232 633.734
2456 2 -21.4022 -64.9335 12.5179 -793.022 -529.561 -133.082 51.8681 201.814 -121.499 -223.499 711.061
2457 2 -22.9341 -64.4252 10.1606 -319.564 -668.14 -218.191 -135.87 160.609 -155.369 -233.18 610.168
2454 2 -20.3078 -64.376 10.2101 -483.812 -652.185 -405.367 112.376 -298.89 130.94 -226.847 636.426
2451 1 -21.6184 -64.186 11.0529 1215.8 1096 839.737 -127.487 265.103 -149.822 -880.679 661.562
2449 1 -24.0354 -64.1024 8.99433 1327.5 964.945 907.418 30.9981 189.54 -19.2221 -868.223 517.085
4945 1 -19.2859 -63.9672 8.99616 1490.46 1115.59 913 -47.7045 226.837 -195.058 -862.666 729.967
2460 2 -21.8569 -62.6414 11.4685 -672.982 -190.586 -640.261 -146.561 -177.906 153.165 -220.385 669.151
59 2 -23.9608 -62.6221 8.42455 -675.637 -441.363 -563.668 -220.369 25.89 -214.101 -232.216 571.32
2555 2 -20.1161 -62.6424 8.38754 -653.064 -70.7179 -598.246 -225.149 56.0517 52.2433 -224.546 692.747
2549 2 -20.9064 -61.4591 13.4662 -379.86 -586.609 -476.76 -17.1989 114.961 -77.8455 -224.889 301.356
58 2 -23.5674 -61.3751 13.2339 -192.605 -687.222 -313.762 43.9218 -304.55 146.849 -229.052 740.359
50 1 -22.1406 -61.3128 12.4039 1215.37 1049.32 1265.62 -130.984 -64.9761 -84.6664 -874.258 352.255
56 2 -22.1568 -59.8713 11.729 -692.427 -356.288 -579.164 -41.054 87.282 42.8936 -235.476 348.103
55 2 -24.0724 -60.0477 8.99958 -778.741 -333.691 -461.973 64.4857 -66.4486 147.675 -233.45 498.577
2551 2 -20.0685 -59.9138 8.84937 -641.283 -129.813 -431.834 -55.4367 -101.362 162.819 -230.276 563.84
52 1 -24.476 -61.1841 7.91804 1202.48 901.965 1110.04 -139.296 135.252 101.706 -857.905 463.894
2560 1 -19.3809 -61.2097 13.9412 1240.28 1115.67 630.863 -24.6381 14.0174 -110.547 -884.573 591.652
2453 2 -25.0697 -65.5786 13.7616 -566.774 -418.986 -624.108 21.4842 182.528 -39.5714 -244.829 373.676
2554 2 -18.2887 -61.0129 12.8087 -415.213 -657.166 -565.213 30.9964 -53.6001 84.8613 -232.081 279.023
2548 1 -20.1321 -61.164 7.76719 1093.87 1017.69 965.391 92.7539 -95.7306 65.3945 -874.671 280.455
2455 2 -23.9796 -65.0082 7.67518 -661.495 -726.093 -150.491 64.0344 86.6376 91.1962 -223.919 598.396
4953 2 -17.8534 -63.3141 9.51887 -260.717 -458.514 -589.21 251.285 8.7387 30.1609 -221.457 523.877
7448 2 -12.214 -64.8334 11.4762 -401.482 -383.546 -453.967 22.4182 49.4554 130.111 -115.79 252.288
7441 1 -14.2217 -64.8437 8.53239 1188.16 963.413 1216.53 68.7436 75.422 -560.332 -883.536 1015.31
7449 2 -12.918 -64.1668 9.12034 -525.996 -440.565 -640.299 143.689 201.963 290.451 -203.667 683.755
4950 2 -15.4475 -64.3491 9.4393 -626.047 -599.748 -465.243 -154.266 -142.134 345.042 -220.252 715.181
7443 1 -11.8972 -63.8226 10.3867 1175.14 1185.58 1390.14 -65.6584 -198.899 -244.741 -947.784 596.152
4956 2 -16.3856 -62.4091 11.2741 -669.292 -628.974 -446.743 -147.488 -282.736 215.839 -219.485 697.866
4947 1 -16.2752 -63.0583 9.83548 1292.34 964.743 966.831 70.0147 18.7165 -355.675 -887.021 708.458
7452 2 -12.0781 -62.3127 11.0503 -577.023 -410.216 -297.859 -54.901 43.6738 384.53 -206.84 719.405
5051 2 -15.5453 -62.0489 8.74774 -464.384 -765.173 -454.859 161.735 -173.202 -63.6314 -219.16 523.495
2546 1 -16.8607 -61.1195 12.103 1212.15 1200.76 807.8 -153.064 -23.2934 -146.998 -881.676 543.843
5042 1 -11.9265 -61.0804 12.0786 1265.97 1567.57 840.466 93.7117 -193.349 28.6841 -909.247 735.74
5050 2 -13.1486 -60.9766 13.1879 -336.729 -787.495 -42.5009 -69.21 -236.618 70.0547 -213.481 787.048
5048 2 -11.8808 -59.5863 11.4119 -753.165 -565.314 -566.299 86.2094 -34.8232 29.0045 -212.219 252.114
2552 2 -16.8133 -59.9196 10.9913 -627.36 -605.909 -417.569 18.4114 77.4438 -83.2821 -225.861 282.471
5045 2 -15.6917 -60.8949 13.2008 -597.58 -807.485 -450.44 94.001 198.535 -45.2609 -217.494 497.493
5047 2 -15.3038 -59.6364 8.0228 -586.874 -720.293 -605.727 198.596 255.068 128.752 -220.1 615.526
7541 2 -10.4698 -61.145 12.7717 -212.989 -888.929 -299.995 -2.17274 209.476 53.2406 -210.512 738.792
5044 1 -15.1874 -61.1575 7.48762 1000.78 1105.56 1077.42 -190.64 -42.1948 60.9771 -887.705 366.535
5038 2 -13.6763 -61.0724 6.91703 -302.044 -660.11 -516.946 213.433 -181.944 -105.869 -220.295 605.839
2458 2 -22.552 -66.1621 14.6105 -41.2595 -654.068 -659.547 114.198 -239.537 83.4521 -207.457 781.711
2450 1 -21.5361 -64.9832 14.0922 1055.68 1140.1 1048.52 -193.024 52.1546 -132.893 -867.316 425.087
64 1 -24.9437 -61.1876 14.08 1460.92 1185.73 673.708 -96.9628 -120.447 -230.509 -860.627 842.572
2467 2 -22.9072 -64.0385 14.3638 -211.548 -918.074 -608.313 116.424 -45.3127 54.7664 -201.87 657.342
4988 2 -15.6494 -63.9459 34.9253 -211.987 -522.215 -99.1692 32.0702 432.041 -100.793 -283.124 858.783
29910 2 -25.6071 -64.163 9.48563 -280.004 -657.873 -600.679 -23.5353 6.2435 3.52505 -233.335 355.331
29922 2 -25.5331 -62.8433 17.7929 -388.514 -561.191 -414.845 -77.8706 -170.59 169.2 -252.159 466.202
2464 1 -23.9111 -65.2807 14.8202 1005.72 960.939 1130.82 -144.037 70.0798 -278.276 -853.988 576.666
2468 2 -22.2281 -64.8029 17.6212 -569.543 -900.589 -253.91 -190.586 51.1883 34.8052 -140.296 658.915
2567 2 -18.9257 -62.4222 14.8641 -728.18 -500.677 -375.36 56.6196 33.2504 -141.591 -213.988 411.157