ITEM: TIMESTEP
1640000
ITEM: NUMBER OF ATOMS
29952
ITEM: BOX BOUNDS pp pp pp
-2.5615833775063237e+01 3.5601128117061187e+01
-1.1596946735966969e+02 1.2595476169386845e+02
-2.1035324467156940e+01 3.4903177627851115e+01
ITEM: ATOMS id type x y z v_StrAtomXX v_StrAtomYY v_StrAtomZZ v_StrAtomXY v_StrAtomXZ v_StrAtomYZ c_PEAtom v_VMS
4901 2 -21.0986 -68.8414 -15.1154 -12.0838 -642.851 -365.06 -233.953 211.244 -230.171 -282.512 869.957
2400 2 -19.7573 -69.0696 -18.4801 149.114 -484.997 -203.923 -141.291 569.635 -95.2522 -279.315 1167.66
4904 2 -18.593 -69.0217 -15.9476 -79.2846 -572.003 -183.62 -296.424 137.989 33.8058 -315.677 725.535
4912 1 -19.6259 -68.7961 -14.5601 296.418 837.308 1125.69 226.306 64.3476 -17.0052 -732.492 835.851
2316 2 -22.0831 -68.6907 -17.6385 -530.472 -512.005 -133.748 -47.1843 -56.1203 -15.4066 -276.989 408.956
2494 2 -22.1015 -68.7428 -20.4001 78.4993 -550.336 16.0139 -81.5514 598.679 -173.927 -268.565 1243.38
2410 2 -23.7762 -68.42 -15.5324 158.04 -495.5 -575.776 -172.016 -270.072 -91.4425 -281.152 904.816
2486 1 -21.2504 -68.4973 -19.0282 1035.91 776.919 1082.88 -22.8789 -55.8813 -65.1513 -767.718 324.222
2402 1 -22.2497 -68.2117 -16.121 557.468 825.828 1212.14 246.879 225.767 245.514 -772.432 917.343
2416 1 -25.139 -68.0288 -14.8231 355.147 1063.68 1303.31 -180.111 -88.0719 30.594 -753.631 923.374
4900 1 -18.3448 -69.0256 -17.6476 872.337 748.715 1090.48 289.036 -161.25 354.891 -747.936 892.361
4896 2 -16.5061 -72.5274 -17.8654 -343.631 53.0318 -535.373 -20.4524 5.04838 22.1235 -171.072 522.459
7392 2 -12.2105 -72.1082 -15.1794 338.157 -352.657 -879.538 -281.087 198.291 18.5857 -264.596 1214.42
4982 1 -16.2076 -71.2645 -17.0916 779.592 519.851 1581.4 134.385 -6.69769 -125.109 -799.255 1009.9
7478 1 -10.909 -71.2361 -15.1438 592.198 148.252 1945.95 39.8726 -204.92 31.3831 -723.644 1662.66
4812 2 -16.8209 -71.0436 -15.5599 -465.513 -330.607 -622.714 -150.242 -128.386 36.7396 -271.714 430.505
7396 1 -13.4762 -71.0416 -15.6408 452.031 267.087 1899.17 -139.882 -156.964 32.7299 -723.667 1591.19
7481 2 -14.5839 -71.125 -16.7168 58.9448 -160.743 -864.356 -165.807 309.755 -175.621 -284.177 1077.38
7486 2 -12.0805 -70.1365 -16.0151 23.4813 -385.953 -1023.1 -200.1 172.5 -124.754 -315.761 1044.29
7399 2 -14.0985 -70.2462 -14.3533 -433.653 8.00829 -510.552 -284.142 -244.082 349.108 -275.706 1010.7
4990 2 -17.1075 -69.9641 -17.765 73.843 -537.169 -590.634 -266.416 258.444 -210.174 -272.171 977.085
4898 1 -17.329 -69.7565 -14.8495 187.198 870.925 1149.39 305.42 58.712 -91.9197 -716.45 1025.16
7397 2 -16.1001 -68.7782 -14.6613 318.702 -566.382 -488.289 244.572 107.519 -44.4664 -296.882 969.749
7394 1 -11.9394 -68.4917 -15.942 937.571 278.745 1374.08 -100.971 -182.715 387.125 -729.602 1221.68
7402 2 -13.2743 -68.1121 -15.0455 286.923 -527.363 -736.925 -8.38853 -114.606 1.62968 -285.042 957.728
7408 1 -14.5177 -68.6307 -14.1359 711.948 1056.85 1014.73 86.2693 202.705 -152.644 -749.987 567.187
29898 2 -25.4604 -64.9484 2.64927 -416.209 -457.667 -827.818 -168.613 -204.332 354.549 -250.83 861.242
2407 2 -23.8202 -66.9794 -20.3158 -562.605 -787.667 -481.857 44.6567 -58.9666 -108.766 -276.743 356.722
4985 2 -20.8733 -66.9289 -19.1262 -515.234 -525.235 -596.437 120.79 -50.6436 -108.283 -277.368 304.176
2408 2 -21.9752 -66.6579 -16.0625 -432.414 -553.22 -757.992 -41.4094 -132.093 -12.8899 -269.384 373.164
2401 1 -24.5586 -66.1552 -19.1673 693.47 1019.02 865.355 2.41218 196.489 63.9252 -786.929 455.709
2409 2 -23.5648 -65.9437 -17.8427 -706.211 -584.197 -474.203 -52.1196 -50.0478 29.3623 -267.495 242.193
2403 1 -22.5082 -65.3679 -16.8702 519.612 418.712 902.743 -20.5079 147.355 -172.354 -787.445 592.578
4897 1 -20.3703 -65.4421 -18.8959 549.565 788.294 892.684 -53.3051 225.788 359.258 -781.357 800.92
4905 2 -18.8753 -65.3243 -18.4108 -268.608 -529.19 -542.692 59.0798 27.7018 -157.17 -272.309 398.1
2406 2 -21.3478 -64.8563 -17.772 -608.727 -572.178 -637.037 -189.971 -36.8927 38.7464 -269.699 346.448
2507 2 -20.4849 -64.5265 -20.2141 -469.787 -405.254 -471.998 74.3572 -131.74 -211.423 -268.233 455.044
11 2 -24.716 -64.685 -19.8247 -414.21 -281.679 -471.325 84.4524 -95.6595 -252.485 -263.971 518.161
2412 2 -23.0167 -64.3401 -15.804 -511.318 -499.192 -613.132 52.9278 -23.8165 126.682 -265.933 264.573
2506 2 -18.5526 -63.409 -15.2385 -296.171 -503.036 -726.666 -28.8263 -25.9326 25.6025 -264.036 381.499
2501 2 -21.1167 -63.1013 -14.6047 -560.992 -436.568 -671.66 -75.4239 -50.3385 58.581 -266.399 276.517
2 1 -22.589 -62.9179 -15.1707 745.968 693.162 1004.36 13.0377 92.0731 -0.00916003 -809.718 330.362
8 2 -22.5456 -61.8663 -16.3315 -539.799 -567.279 -529.595 51.7451 -28.4562 -18.2046 -262.398 112.231
7 2 -24.5074 -62.117 -20.4699 -439.013 -315.102 -497.294 42.3992 96.349 154.363 -257.583 361.522
2503 2 -19.9882 -62.0209 -19.9916 -501.59 -328.273 -365.36 -23.8153 -36.6395 198.062 -265.407 385.228
2512 1 -19.6701 -63.3938 -14.0949 627.064 801.804 1070.75 143.456 20.0121 -232.881 -809.772 612.781
10 2 -23.6726 -62.5334 -14.0246 -411.591 -596.259 -515.955 -86.1744 -231.449 87.5116 -249.791 481.331
2500 1 -19.8049 -63.2674 -20.9851 444.357 850.253 841.467 42.3544 -66.1267 -5.68987 -785.514 424.099
2634 2 -15.6762 -55.5933 3.17052 -217.041 -588.848 -357.623 48.3639 -186.626 51.1935 -236.934 474.449
7400 2 -12.0637 -67.6371 -17.2879 -483.011 25.5738 -422.196 -56.5606 169.725 -466.503 -285.043 990.111
4903 2 -17.7232 -67.5128 -17.8643 -416.234 -333.354 -600.406 216.313 16.3321 -127.775 -275.159 496.191
7401 2 -13.9071 -66.5694 -19.0313 -135.799 -526.137 -156.884 11.0933 439.034 -235.968 -275.261 943.527
7395 1 -12.488 -66.3626 -18.23 885.42 977.77 905.772 -73.9409 -27.0587 496.249 -774.183 874.328
7398 2 -11.3324 -66.3069 -19.3602 -265.244 -787.582 -431.419 -154.501 -169.636 -74.6111 -269.276 623.132
7393 1 -15.0623 -65.8755 -19.9713 773.687 904.297 1034.2 -54.3438 38.915 462.496 -750.065 840.246
4899 1 -17.4379 -65.9592 -17.8766 614.731 761.703 887.532 -270.936 183.61 221.115 -782.071 723.85
4902 2 -16.2856 -65.7045 -18.899 -408.819 -607.043 -359.424 49.4662 -207.099 -181.698 -279.385 535.328
4908 2 -17.1403 -65.2287 -16.4872 -495.924 -387.685 -497.585 85.8455 -19.4252 148.452 -270.899 318.202
7404 2 -12.5657 -65.0373 -17.2936 -414.65 -131.528 -274.456 15.9274 59.5532 151.467 -279.718 374.63
5003 2 -14.3442 -64.5261 -20.4612 -284.724 -392.265 -521.969 156.744 -115.137 -110.2 -298.873 438.457
4997 2 -15.9343 -63.7002 -14.7012 -276.259 -400.453 -555.91 87.4502 148.674 -49.7787 -265.241 394.443
5002 2 -13.4444 -64.0312 -14.9458 -425.969 -319.409 -305.27 -63.0613 -238.553 122.812 -263.225 490.88
7493 2 -10.8664 -64.2032 -15.3824 -297.77 -422.074 -488.927 83.9922 238.168 42.0714 -265.681 474.212
4994 1 -12.2491 -63.9579 -16.1088 908.049 572.6 1258.86 65.1785 -133.511 11.6576 -796.603 647.998
2498 1 -17.1063 -63.8033 -15.7677 802.046 695.346 974.177 -152.477 117.835 -83.2766 -799.364 437.708
2504 2 -16.8047 -62.783 -17.0077 -551.841 -549.389 -471.173 151.139 -99.1682 -48.0611 -261.636 333.582
5000 2 -12.1899 -62.457 -16.6563 -498.653 -71.9491 -645.982 60.0117 11.4871 -40.6154 -267.575 531.787
4999 2 -13.6187 -61.9545 -19.9424 -589.688 -275.981 -519.352 108.843 41.8086 205.554 -271.73 498.835
9 2 -23.0688 -60.6983 -18.7009 -464.686 -382.558 -393.15 -15.0323 103.731 -25.6373 -264.6 202.28
6 2 -20.6594 -60.6437 -17.7916 -182.678 -376.693 -491.621 -29.7278 -272.677 68.8418 -260.766 559.531
1 1 -24.3327 -60.7375 -19.6682 920.772 613.443 970.784 59.745 38.6906 142.179 -825.656 433.781
2497 1 -19.5479 -60.8211 -18.9701 758.341 732.374 1216.35 67.6709 -2.26988 -30.7438 -808.775 488.806
3 1 -22.2146 -60.662 -17.3278 999.087 735.883 1018.61 -15.7636 -6.00804 -66.7243 -814.472 298.339
107 2 -24.3671 -59.5944 -20.7382 -598.355 -674.291 -756.019 -58.9318 -30.6814 35.7737 -245.78 189.035
2603 2 -19.5406 -59.4352 -19.8027 -533.556 -154.67 -602.289 -7.1061 -15.4433 -69.3109 -263.388 435.43
12 2 -22.5863 -59.3809 -16.4228 -495.241 -442.683 -378.664 -50.8888 2.72443 310.898 -249.86 554.968
98 1 -22.4206 -58.4502 -15.0864 929.391 646.599 1225.59 221.758 90.8643 -88.1384 -825.443 668.633
2596 1 -19.4927 -58.0137 -20.5313 1074.12 841.521 953.867 51.0792 100.028 -46.3951 -812.194 291.365
103 2 -24.6413 -57.0755 -20.2817 -600.933 -497.781 -374.594 -103.71 61.7353 170.861 -244.8 412.072
104 2 -22.7013 -57.0011 -15.5653 -624.821 -590.309 -748.703 9.84043 -11.0784 -48.3687 -252.368 168.791
2599 2 -20.1274 -56.8219 -19.6542 -585.91 -255.846 -469.975 -104.645 -47.8573 147.58 -256.107 434.948
105 2 -23.4923 -56.4654 -17.9587 -337.499 -442.544 -510.26 -76.1043 82.2073 77.6838 -253.505 280.156
2601 2 -18.3871 -56.4057 -17.7999 -218.82 -499.274 -616.216 -61.7664 32.8501 89.6741 -256.245 404.888
2593 1 -19.8567 -55.95 -18.3201 897.911 812.977 1027.74 134.385 159.375 -102.42 -817.289 443.784
97 1 -24.686 -56.0793 -19.0132 988.255 784.614 907.284 94.903 143.517 -44.979 -827.705 355.553
102 2 -21.0544 -56.1899 -17.3016 -467.549 -465.195 -666.515 -123.846 -87.6348 51.5066 -258.705 342.159
99 1 -22.5351 -55.9963 -16.7727 706.619 820.769 942.106 47.7867 -11.2941 105.945 -821.444 287.245
2597 2 -20.9289 -58.5311 -14.486 -454.209 -461.041 -646.765 -0.32681 35.9243 225.262 -256.278 438.076
2602 2 -18.324 -59.0635 -14.7814 -237.182 -583.783 -519.281 -27.1318 -189.44 -2.16422 -249.36 460.241
2505 2 -18.114 -61.1885 -18.4443 -522.52 -508.115 -751.495 -49.3209 -45.7315 52.2822 -259.568 278.761
2637 2 -18.1772 -55.7359 2.25256 -401.581 -579.503 -155.015 53.2306 252.76 134.58 -236.342 625.155
2499 1 -16.7484 -61.3577 -17.6538 611.486 613.277 973.147 37.9362 -17.7485 -26.9665 -811.073 370.942
2502 2 -15.5385 -60.9706 -18.6246 -580.326 -328.012 -619.744 121.776 -57.7541 -130.74 -267.931 425.365
4995 1 -12.0354 -60.8633 -16.9112 941.339 719.545 1116.54 -156.885 -24.8949 -151.575 -798.284 513.192
4993 1 -14.1185 -60.6269 -19.2228 902.51 592.43 989.637 -94.129 54.0742 -133.917 -799.795 468.947
5001 2 -13.1078 -60.3162 -17.9854 -357.422 -406.092 -423.781 32.4502 168.604 -13.2949 -265.436 304.16
2508 2 -16.7788 -60.2494 -16.5173 -570.736 -447.879 -730.764 -36.4019 -2.31059 43.6944 -257.791 264.73
5004 2 -12.2277 -60.0398 -15.5451 -529.079 -143.327 -527.556 -63.2942 -83.3871 153.171 -266.251 501.481
5099 2 -14.0205 -59.4463 -20.3198 -440.167 -285.496 -365.453 73.3139 -94.3847 -244.133 -261.471 489.492
2594 1 -16.8684 -59.0521 -15.4893 924.094 820.776 991.169 40.313 36.1626 -309.401 -822.859 563.994
5090 1 -12.2263 -58.6183 -14.784 895.552 1006 850.34 -5.49791 190.593 -222.106 -807.126 525.64
2600 2 -16.704 -57.6515 -16.3161 -505.891 -42.9894 -476.909 1.54876 -32.8567 -120.546 -255.585 498.54
5096 2 -12.4575 -57.2541 -15.6214 -556.44 -23.0647 -443.816 70.2771 -82.2679 -46.4116 -266.776 527.906
5095 2 -13.8173 -56.9779 -19.9963 -596.09 -621.967 -667.182 -0.482996 55.5947 -44.6962 -260.976 138.385
2598 2 -15.7611 -56.2814 -18.4003 -259.786 -494.568 -469.972 32.6902 -232.693 -56.9887 -252.39 474.7
2595 1 -16.8955 -56.3151 -17.2343 759.471 913.87 1240.65 54.7232 -21.8414 -123.243 -825.744 486.89
5097 2 -13.3676 -55.7428 -17.6365 -576.257 -509.629 -486.122 -20.3898 -3.6857 17.4289 -255.654 93.5811
5091 1 -12.2985 -55.9066 -16.4985 977.779 708.029 966.429 -99.7891 -39.4421 -184.118 -820.277 453.951
5094 2 -10.8374 -55.8056 -17.217 -223.41 -438.708 -472.942 151.052 -238.456 10.1141 -258.31 542.436
5089 1 -14.295 -55.8762 -18.9641 1022.3 777.905 866.099 17.3437 43.3253 38.8707 -817.513 238.783
5093 2 -15.7478 -59.1388 -14.3466 -336.898 -475.922 -460.702 82.4029 50.4823 209.603 -256.498 421.022
4998 2 -10.5742 -60.6143 -17.6099 -315.112 -480.56 -656.728 91.6464 -161.388 -33.4208 -261.449 440.728
4906 2 -18.5696 -69.7772 -13.8638 145.163 -476.74 -898.786 -115.209 -41.9011 30.1834 -278.367 935.509
4913 2 -21.0698 -69.2626 -7.36038 -62.2971 -838.272 -279.821 58.5797 219.809 -5.53355 -234.992 797.494
2422 2 -23.6326 -68.1406 -7.77077 91.3272 -378.435 -693.155 -82.4873 -167.804 -21.5429 -256.881 757.528
2414 1 -22.0675 -68.1809 -8.03788 679.394 1166.28 978.684 -30.9258 -70.1942 44.9603 -814.675 452.358
2328 2 -21.8378 -67.8517 -9.64219 -600.557 -553.248 -12.0648 -56.1711 -105.936 -306.149 -247.121 803.141
4918 2 -18.521 -68.3299 -7.22866 -275.525 -409.821 -578.47 -10.8456 -211.719 18.2998 -274.287 452.724
2428 1 -25.1334 -68.2851 -7.07901 1136.62 1004.08 842.718 -31.7071 -116.469 -61.3504 -826.348 346.4
2538 2 -15.8094 -61.3975 3.66401 -326.544 -669.817 -561.142 70.3279 -58.3962 67.9295 -230.886 362.289
7409 2 -15.8936 -69.2175 -7.64352 241.373 -619.893 -384.971 118.115 179.356 1.15298 -228.867 856.154
7414 2 -13.3145 -67.9604 -7.84505 26.9096 -402.423 -720.165 16.3656 -92.1698 93.1278 -265.328 688.485
7406 1 -11.7604 -67.916 -8.00208 463.809 1174.16 862.214 37.195 -20.0637 -42.7395 -808.552 625.424
4910 1 -17.147 -68.1703 -7.9913 615.187 1157.75 895.252 -163.786 155.38 34.327 -798.257 614.244
7411 2 -14.4105 -67.6291 -12.9082 -510.96 -115.962 -476.622 -5.92986 129.261 342.199 -272.771 738.357
7320 2 -11.4706 -67.4955 -9.48321 -668.621 -435.412 -593.301 -14.0208 -123.913 -195.907 -250.268 451.98
9905 2 -10.8465 -69.0014 -7.17126 -59.5528 -850.441 -333.467 -74.7588 303.75 -3.80163 -231.885 881.759
7420 1 -14.7782 -68.0648 -7.10201 794.82 1265.01 1009.45 -48.7532 -12.9402 -158.047 -805.14 498.793
4915 2 -19.453 -67.3804 -13.8565 -574.384 -289.685 -412.164 30.5035 -25.5905 240.178 -277.302 488.874
2419 2 -24.9683 -67.0156 -13.5789 -383.822 -654.347 -113.492 -29.7783 63.4013 203.33 -272.396 598.449
2421 2 -23.2981 -66.5446 -11.5417 -234.074 -480.993 -299.388 -112.511 220.721 -20.801 -257.8 484.289
2418 2 -20.7126 -66.6562 -11.7599 -465.174 -549.677 -538.525 48.7159 -126.639 -55.0051 -258.221 265.766
2415 1 -21.8869 -66.6704 -10.7372 908.431 1192.17 704.975 88.8282 322.982 64.0613 -826.417 727.026
2413 1 -24.6701 -66.1237 -12.2921 886.565 916.102 979.059 27.2614 -14.5143 -239.234 -824.038 425.741
4909 1 -19.4145 -66.2807 -12.667 1034.59 770.652 941.689 119.523 147.067 -134.169 -801.9 464.243
2424 2 -21.6862 -65.3522 -9.745 -569.957 -544.881 -339.67 43.3752 37.0506 243.228 -241.689 484.901
2519 2 -19.5441 -64.8259 -13.3179 -503.858 -218.628 -469.495 -95.0477 -30.2546 -114.532 -265.144 376.744
23 2 -24.6674 -64.6465 -12.9428 -452.508 -405.182 -594.929 -155.906 35.1385 -66.4471 -251.149 345.157
22 2 -23.3222 -64.7125 -7.82883 -250.011 -442.486 -278.397 31.1707 -373.868 3.25673 -240.999 674.291
14 1 -21.8822 -64.3431 -8.54181 1285.36 931.512 976.713 188.63 158.729 -239.489 -855.489 682.386
16 1 -25.0155 -63.1558 -13.4483 870.519 860.506 946.51 13.1697 202.283 -252.233 -829.3 566.371
20 2 -21.8861 -62.8749 -9.22275 -640.134 -308.83 -575.572 2.29294 -136.158 -19.1114 -240.76 386.354
2513 2 -20.7698 -64.2496 -7.35765 -693.088 -726.51 -191.851 -22.4064 118.657 47.1821 -228.799 565.271
2515 2 -19.2703 -62.1955 -13.0905 -672.947 -375.471 -737.329 37.3009 52.2752 68.2864 -252.52 371.686
18 2 -20.9998 -61.6107 -11.306 -440.267 -543.219 -455.834 16.976 -220.371 78.3154 -241.645 417.364
21 2 -23.6153 -61.5851 -10.6435 -234.449 -544.263 -520.706 -86.2362 4.60619 133.97 -244.279 406.766
15 1 -22.1021 -61.5646 -10.0952 1043.75 722.136 1015.56 41.8051 115.33 -163.435 -846.566 469.514
2420 2 -21.0998 -67.136 -7.2806 -4.7578 -936.316 -491.179 -130.064 111.181 -55.4482 -230.652 865.063
19 2 -25.5376 -62.2279 -12.283 -710.537 -456.983 -603.588 -12.5338 47.7751 126.254 -246.874 322.101
4917 2 -18.1266 -66.3302 -11.6686 -401.195 -525.302 -101.151 2.67667 194.061 115.435 -262.328 543.73
2517 2 -18.4943 -61.2564 -10.8082 -394.3 -472.955 -312.763 -154.365 158.346 -88.4553 -244.301 435.232
2518 2 -18.4075 -64.6231 -7.05784 -565.653 -312.464 -355.898 227.212 -431.066 47.3211 -238.149 879.796
4824 2 -17.383 -67.6999 -9.50322 -680.879 -450.675 -376.685 -113.943 -80.8966 -172.661 -258.368 472.778
4916 2 -16.0447 -67.0862 -7.48423 44.1418 -1041.12 -586.823 20.723 -9.13193 -39.6174 -237.028 947.311
5008 1 -14.5533 -63.7687 -13.8267 894.128 755.702 1097.44 -125.24 61.9855 -20.5736 -812.902 385.344
7405 1 -14.4125 -66.3477 -11.8906 833.522 917.854 969.568 15.498 78.0533 -148.721 -816.213 315.434
7413 2 -13.0131 -66.215 -11.0914 -253.365 -557.696 -464.98 96.0342 168.433 168.931 -250.677 520.948
7407 1 -11.5255 -66.1773 -10.4207 888.779 1034.84 711.147 20.3126 179.516 -175.328 -824.695 518.62
4914 2 -15.6655 -66.4289 -10.921 -435.859 -578.495 -457.052 -62.3572 -166.151 109.527 -256.587 385.024
4911 1 -17.1755 -66.3783 -10.3519 1049.82 1037.28 632.221 -46.2112 134.095 45.2936 -817.173 485.608
5015 2 -14.5247 -65.0361 -12.8203 -532.282 -372.218 -532.502 39.5033 2.4167 -125.594 -253.15 278.705
4920 2 -17.3905 -65.0875 -9.40105 -607.804 -413 -378.177 85.4334 29.7873 234.144 -254.424 484.74
7416 2 -11.3498 -64.9158 -9.48702 -519.412 -534.637 -308.198 18.2025 -73.7636 241.058 -247.656 489.595
5014 2 -13.0392 -64.3702 -7.4749 -163.05 -547.854 -398.262 -10.838 -288.759 149.034 -244.663 655.759
2510 1 -17.1843 -64.1581 -8.117 1435 940.472 1009.26 -6.19316 149.326 -392.752 -832.077 863.157
5009 2 -15.7244 -64.2255 -7.367 -114.353 -644.353 -287.802 -33.7054 259.149 178.294 -250.283 720.628
5006 1 -11.6335 -63.9955 -8.1268 1081.07 1127.81 1118.81 -89.0764 96.4061 -202.029 -847.127 419.498
5011 2 -14.5278 -62.5241 -12.8111 -527.878 -432.768 -334.186 -30.9545 -100.242 244.829 -257.204 490.901
2516 2 -17.4119 -62.652 -8.71316 -606.078 -310.871 -407.63 -66.9845 12.6612 -144.405 -253.15 380.06
5012 2 -11.7824 -62.5249 -8.8346 -565.699 -374.741 -319.293 12.8491 -73.4645 -188.648 -240.091 416.628
2514 2 -15.9135 -61.849 -10.6765 -472.21 -543.265 -437.175 -43.2573 -180.325 113.862 -246.729 388.361
5010 2 -10.9719 -61.7365 -11.4049 -660.014 -490.416 -320.654 20.7124 -170.734 -44.6699 -245.389 425.555
7412 2 -10.7575 -66.8572 -7.23562 -13.4433 -898.509 -768.144 -43.9829 110.012 75.8102 -222.171 862.732
5013 2 -13.3427 -61.4678 -10.6845 -574.793 -470.13 -546.511 31.6661 178.579 94.4147 -239.745 366.356
5007 1 -11.8541 -61.4885 -10.0682 965.02 664.428 1247.62 19.9567 49.7584 -208.571 -847.699 627.925
7505 2 -10.4139 -63.9683 -7.05914 -428.831 -841.006 -338.153 -81.1646 158.898 15.0439 -237.717 558.277
7410 2 -10.5118 -66.1714 -11.6365 -639.17 -533.379 -424.883 29.2055 -22.7855 3.26038 -258.814 196.442
106 2 -23.4587 -59.0302 -13.9485 -441.206 -540.519 -469.053 72.3121 -189.241 -30.5309 -243.37 365.778
2509 1 -19.6082 -61.1756 -11.9696 1098.61 833.051 778.017 6.22399 145.058 -335.132 -834.185 698.817
13 1 -25.096 -61.1582 -11.1995 1140.79 833.33 789.831 86.3579 157.652 -272.977 -844.453 655.958
2615 2 -19.7203 -59.6562 -12.6142 -602.8 -105.546 -523.081 18.8062 -71.7622 -25.5326 -252.219 482.123
24 2 -21.9039 -60.16 -9.39956 -622.594 -440.944 -644.001 -24.485 -102.379 -8.76574 -248.171 266.115
119 2 -24.915 -59.7476 -11.939 -639.478 -374.565 -566.694 -32.072 -16.3424 0.322634 -246.4 245.117
112 1 -24.805 -58.732 -13.1573 788.57 984.652 795.321 -25.687 75.0178 -87.4607 -844.508 281.035
2608 1 -19.5277 -58.6128 -13.7889 900.914 785.533 1047.23 173.16 -76.9557 -112.037 -827.829 443.825
124 1 -24.7331 -58.7341 -7.39538 933.464 979.204 842.836 191.927 89.8262 -31.3489 -840.163 390.016
110 1 -22.0686 -58.6364 -8.9695 1016.82 874.198 983.475 -111.667 156.11 -92.4385 -842.122 390.961
2609 2 -21.1039 -58.4329 -7.70559 -403.312 -687.897 -263.515 17.6339 166.424 -20.9245 -241.346 475.03
118 2 -23.6055 -58.4032 -8.50762 -309.778 -581.372 -579.818 18.3054 -178.828 -40.8009 -239.153 418.666
2614 2 -18.5065 -58.3802 -7.72859 -579.526 -726.515 -366.26 1.69695 -103.538 81.429 -246.988 387.939
116 2 -21.7604 -57.584 -10.1511 -579.809 -321.628 -402.874 76.829 -81.9161 -149.942 -249.7 396.949
115 2 -24.7169 -57.1531 -12.7721 -580.492 -204.693 -574.653 -21.8073 -80.9007 90.2416 -242.935 429.6
2611 2 -18.9675 -57.1197 -13.3391 -531.589 -303.168 -587.239 207.697 100.953 70.7916 -249.496 492.958
111 1 -21.6584 -56.1044 -10.7834 908.662 924.583 942.55 78.4556 233.893 -91.6219 -831.51 456.76
2605 1 -19.0938 -55.727 -12.6212 1059.18 557.501 919.458 53.6412 38.1414 30.4185 -825.859 465.706
114 2 -20.5558 -55.8551 -11.8652 -365.365 -461.53 -613.583 55.383 -52.5782 -36.5196 -253.918 261.699
109 1 -24.6618 -55.7744 -11.9149 892.56 879.202 1186.11 -12.6874 50.2635 -59.7097 -834.567 330.195
117 2 -23.1775 -55.7837 -11.3108 -100.899 -564.194 -622.99 -101.435 -46.7595 50.8427 -248.903 538.999
131 2 -24.7199 -60.2742 -7.06731 -687.521 -407.141 -633.306 -111.027 -31.4751 54.7403 -248.577 339.55
5005 1 -14.672 -61.4935 -11.5869 925.671 834.92 959.548 -33.0384 152.52 -117.035 -838.837 355.824
2511 1 -17.226 -61.5018 -9.76148 1248.05 752.54 991.113 -39.5493 122.419 -44.8683 -837.234 489.821
5109 2 -12.9425 -55.8392 -11.6612 -185.612 -606.136 -607.747 29.5963 -19.9073 92.5638 -251.373 455.018
7601 2 -10.7612 -58.2651 -7.83665 -685.074 -630.634 -533.655 54.7448 10.251 30.2595 -245.322 172.341
5111 2 -14.8768 -59.9879 -12.1483 -639.01 -154.289 -693.073 -14.011 -78.2048 39.3704 -246.915 536.348
5016 2 -11.4779 -60.0282 -9.57956 -567.334 -241.346 -665.286 -43.3327 -55.8497 114.812 -243.552 449.811
2520 2 -17.0532 -60.021 -9.1473 -663.599 -68.8986 -634.581 -102.658 -138.229 60.6373 -244.049 661.227
5098 2 -13.2698 -58.684 -13.6159 -777.226 -687.523 -634.148 37.902 117.816 73.5203 -259.941 279.017
5104 1 -14.7237 -58.7437 -13.1393 709.703 974.268 893.428 -51.6782 275.662 -65.3835 -820.686 551.315
2606 1 -17.2233 -58.4772 -8.65161 1003.79 1098.09 1045.96 -29.2361 117.091 -198.24 -836.15 410.228
5116 1 -14.348 -58.5383 -7.3679 901.052 981.038 943.489 3.93403 -25.7215 -53.105 -845.88 123.677
5102 1 -11.7269 -58.4969 -9.07866 1009.2 1021.65 933.948 -151.094 -32.4075 -150.265 -838.406 382.273
5110 2 -13.2505 -58.3334 -8.56635 -263.393 -581.271 -390.151 -6.21069 -234.303 103.319 -243.685 523.12
5105 2 -15.8362 -58.2894 -7.78179 -378.849 -703.937 -519.203 33.5168 38.839 50.6475 -240.265 308.78
5108 2 -11.4508 -57.3826 -10.2266 -587.504 -365.045 -397.523 94.7581 -25.1007 -71.2396 -251.671 295.585
5107 2 -15.0112 -57.2084 -12.602 -563.773 138.426 -505.682 110.092 40.3435 123.917 -254.369 736.87
2612 2 -17.1623 -57.2659 -9.76751 -577.576 -89.1283 -405.281 31.6913 -38.0574 -130.917 -248.618 492.834
5103 1 -11.5161 -55.9775 -10.9602 980.015 929.998 944.752 -48.77 -87.5359 -122.831 -834.817 278.149
5101 1 -14.5143 -55.7585 -12.034 997.766 951.26 1097.76 75.2111 -23.4441 -93.1629 -827.36 247.927
2607 1 -17.0161 -55.7272 -10.2543 882.595 1043.64 724.61 -34.4841 72.9161 -147.039 -839.258 400.895
5106 2 -10.191 -55.747 -11.9239 -136.268 -480.28 -421.783 104.279 -240.233 -7.95866 -251.12 554.609
7589 2 -10.6304 -58.4985 -14.3061 -162.139 -689.43 -586.746 -40.432 12.0838 109.843 -243.977 525.333
4924 1 -19.9786 -68.2509 -6.66502 795.207 1202.5 1059.75 -127.298 153.332 -25.7954 -800.955 499.264
2431 2 -24.7697 -68.0945 -5.54537 -892.088 -482.217 -437.605 24.375 -16.6268 209.962 -232.072 568.448
4927 2 -19.9118 -67.9563 -5.02429 -695.347 -343.199 130.905 106.809 -63.375 329.706 -240.373 942.407
7332 2 -12.0297 -69.5751 -2.04598 -443.699 -144.171 -136.045 6.92309 -83.3218 -51.3747 -123.5 348.003
7418 1 -12.4421 -68.8868 -0.669034 1374.68 1136.43 1574.15 -2.63517 -189.001 351.153 -930.564 788.151
7423 2 -14.4607 -67.8855 -5.57089 -682.26 -531.088 -345.754 181.621 20.8839 240.157 -241.472 598.759
7426 2 -14.0581 -68.9646 -0.335051 31.6112 -496.446 -665.46 -77.7206 11.5919 -125.172 -214.404 679.844
2432 2 -23.0831 -67.36 -1.17639 -654.241 -328.307 -5.01046 164.452 -408.016 -157.137 -257.903 985.275
2433 2 -23.6237 -66.6632 -3.69853 -592.269 -673.198 -362.967 -53.3513 -6.25244 105.234 -236.867 345.782
2425 1 -24.9013 -66.8053 -4.61499 1327.41 1174.34 432.497 117.686 56.291 -359.785 -860.549 1061.47
4929 2 -18.4547 -66.8621 -3.09233 -475.726 -592.355 -269.863 -144.531 154.664 -61.9976 -239.411 475.345
2430 2 -21.0843 -66.6469 -3.03283 -317.969 -645.634 -358.485 34.2542 -401.66 9.31763 -236.224 763.874
4921 1 -19.7738 -66.7131 -3.96707 1145.76 1279.17 725.374 -35.4098 210.483 -170.958 -855.501 689.169
2427 1 -22.5971 -66.4158 -2.47323 1357.72 1188.78 876.563 67.9253 230.077 -33.7978 -845.374 595.683
35 2 -24.7583 -65.5361 -5.64091 -731.998 -294.506 -265.845 87.5525 -354.557 -117.246 -240.924 803.821
2531 2 -19.7942 -65.371 -4.92558 -598.653 -283.3 -182.88 -56.9675 -27.1519 -168.302 -242.819 487.979
2436 2 -22.6378 -64.8264 -2.0616 -736.547 -1.86896 -505.191 28.9767 -66.6506 54.3126 -239.205 669.329
28 1 -24.5634 -64.4159 -6.78014 1425.47 959.439 1083.2 47.7848 163.61 -55.1324 -852.877 520.668
2524 1 -19.6905 -64.3217 -6.15742 1055.91 921.623 1158.45 -113 236.802 -107.911 -860.185 532.713
26 1 -22.5658 -63.1947 -1.96204 916.667 977.085 750.605 -112.683 180.865 178.163 -844.817 522.222
2536 1 -19.7753 -63.1132 -0.769302 803.45 1061.82 847.174 -18.0041 53.9038 -111.925 -850.967 323.482
2530 2 -18.3899 -63.1527 -1.58399 -463.267 -554.385 -611.731 -36.6383 -33.6978 65.1844 -240.16 192.347
2525 2 -21.0592 -62.8439 -1.6479 -549.333 -683.733 -685.075 6.15411 -187.9 3.03965 -243.186 352.571
31 2 -24.3136 -62.8899 -6.23603 -739.095 -19.7085 -512.052 0.231964 -114.877 53.1757 -243.218 673.652
34 2 -23.6856 -62.6896 -0.982353 -516.617 -713.766 -650.02 -48.2795 -49.0988 71.6462 -247.65 244.925
2527 2 -19.7201 -62.815 -5.55123 -566.154 -8.47389 -606.241 -27.8452 -166.567 124.977 -235.834 683.657
32 2 -22.8148 -62.4897 -3.36069 -736.758 -409.207 -641.285 93.3142 -169.193 -86.5728 -232.891 468.634
2543 2 -19.9563 -64.615 -0.124597 -580.018 -380.995 -582.146 20.5361 -133.884 -171.703 -234.805 428.396
40 1 -24.8969 -63.1353 -0.0799611 1021.55 806.173 848.586 24.157 177.145 89.8278 -839.811 398.934
4928 2 -16.2786 -67.7544 -1.4261 -421.438 -435.784 -418.607 -148.602 201.14 -166.656 -233.321 520.766
7517 2 -10.6864 -63.4132 -0.984828 -327.831 -653.51 -421.273 -18.1766 252.729 9.50049 -233.661 526.54
7424 2 -12.188 -67.2338 -1.01521 -639.602 -266.929 -541.905 164.203 -0.670827 -285.294 -201.258 661.127
4926 2 -15.8989 -66.7329 -3.7547 -439.342 -738.054 -436.611 140.333 -223.335 -3.2999 -220.588 546.627
4923 1 -16.9453 -66.7644 -2.49888 1313.47 1000.07 898.68 -78.7771 98.0064 -68.3423 -867.136 449.137
7425 2 -13.2952 -66.6898 -3.36048 -446.389 -943.375 -276.07 72.735 68.4866 -19.3795 -220.595 625.875
7417 1 -14.4639 -66.6865 -4.49354 1305.99 1224.93 560.675 -186.31 231.38 -200.758 -869.421 941.968
7419 1 -12.1765 -66.2988 -2.30354 1154.75 1037.73 897.5 -222.225 14.0526 -114.722 -901.459 487.847
7422 2 -10.6921 -66.2223 -2.93969 -229.955 -690.183 -383.977 25.2253 -183.258 116.473 -222.881 554.982
5027 2 -14.3815 -65.3392 -5.33383 -669.05 -175.697 -349.859 -36.7896 -62.7139 -78.3225 -240.815 471.242
4932 2 -16.8562 -65.2275 -2.01873 -738.991 -415.513 -653.609 74.3784 -96.8296 -73.4372 -231.035 381.067
7428 2 -12.6167 -64.7961 -2.00833 -640.997 -525.588 -597.471 -9.33978 -54.9512 -30.4967 -226.636 149.336
5020 1 -14.3712 -64.12 -6.48137 1202.92 1038.04 1271.6 76.6483 23.8582 -293.676 -837.791 566.828
2522 1 -16.9147 -63.6584 -1.89326 959.441 856.966 1037.02 -147.781 152.428 -117.838 -860.808 448.717
5018 1 -12.1666 -63.3067 -1.63113 997.797 1199.93 986.443 -51.2679 -47.0248 -25.6978 -863.69 244.506
5021 2 -15.8056 -63.188 -0.858521 -448.518 -682.906 -612.276 90.5228 -61.722 48.9198 -239.453 294.216
5026 2 -13.227 -62.6302 -0.57014 -377.878 -636.194 -535.453 -94.6727 -22.222 217.638 -228.552 470.449
2528 2 -16.6479 -62.8332 -3.29131 -728.762 -336.756 -371.197 93.3126 -41.4005 -95.3438 -234.347 447.09
5023 2 -14.1459 -62.6073 -5.96641 -591.239 -235.155 -602.644 67.273 -2.22344 58.6487 -246.118 393.57
5024 2 -12.1415 -62.1914 -2.79276 -641.317 -496.422 -658.805 33.1545 76.9967 22.3881 -233.115 215.456
5031 1 -11.8429 -61.412 3.93906 891.984 1410.49 1093.7 238.458 -174.868 16.8741 -874.789 684.194
25 1 -24.5515 -61.3403 -5.89944 1176.13 931.101 692.375 61.7981 113.058 -40.4723 -842.443 479.835
2521 1 -19.5773 -61.224 -5.10443 737.071 1127.03 1008.7 97.8955 136.441 -179.499 -844.477 548.805
27 1 -22.403 -60.9796 -3.81494 1020.27 1070.72 613.686 26.1642 16.6466 81.2406 -836.662 459.409
30 2 -20.8398 -60.9138 -4.22521 -392.695 -629.871 -629.715 25.4682 -69.7601 19.3642 -245.445 271.82
33 2 -23.3483 -60.7431 -5.0092 -562.208 -750.092 -558.157 98.8831 -93.8853 249.982 -247.613 528.514
2620 1 -19.755 -58.5573 -6.76019 1136.01 1212.01 612.635 -85.5131 196.35 34.7384 -840.373 678.741
2627 2 -19.6325 -60.0785 -6.28532 -684.16 -128.891 -497.967 -75.5976 -7.29243 47.6148 -243.673 513.528
36 2 -22.5711 -60.0332 -2.51122 -676.79 -363.177 -254.656 25.4139 -5.43597 131.483 -252.512 445.031
2621 2 -20.886 -58.9452 -0.79578 -513.187 -660.248 -520.25 -11.9649 46.7773 -52.8922 -244.9 189.802
122 1 -22.3814 -58.9449 -1.3458 1000.12 1034.8 892.908 -9.27002 85.4865 23.3547 -841.94 200.58
127 2 -24.2969 -57.74 -6.20436 -663.963 -433.383 -603.028 26.5357 58.6466 92.059 -242.675 284.052
2623 2 -19.746 -57.3692 -5.66152 -662.443 -316.263 -359.874 35.0712 -49.6828 92.3096 -248.468 378.555
128 2 -22.7434 -57.4595 -1.85691 -645.223 -432.446 -674.695 -67.9179 9.7801 113.698 -246.405 324.531
126 2 -20.9197 -56.6151 -3.40475 -228.861 -657.202 -584.845 -21.2778 -104.96 132.095 -240.555 494.442
2625 2 -18.2116 -56.4197 -3.85564 -528.767 -554.331 -614.913 128.37 -79.7443 41.8935 -249.317 282.226
121 1 -24.5728 -56.5501 -5.20878 997.89 999.912 679.517 167.314 -12.5807 -125.078 -850.091 483.114
129 2 -23.4718 -56.3293 -4.09562 -431.912 -627.718 -455.836 10.3299 40.7444 122.821 -239.29 291.177
2617 1 -19.6638 -56.3951 -4.39393 825.206 842.19 868.572 -68.696 -88.1504 -24.7156 -848.399 201.827
123 1 -22.4077 -56.3061 -2.84435 1067.56 698.17 965.337 -30.4274 168.658 -46.1778 -847.066 451.275
2626 2 -18.2629 -59.108 -1.08534 -493.86 -662.697 -562.706 155.958 -47.4965 -94.7358 -242.977 358.166
2529 2 -18.177 -61.1053 -4.39893 -788.204 -681.889 -568.542 -63.1896 -93.4293 109.366 -243.127 332.039
130 2 -23.4187 -59.158 -0.109692 -333.505 -558.777 -342.61 -133.421 -261.115 84.9354 -239.409 573.034
2632 1 -19.4565 -58.8147 -0.123888 758.899 988.314 1034.38 -148.743 107.647 -186.519 -852.126 520.412