ITEM: TIMESTEP
600000
ITEM: NUMBER OF ATOMS
29952
ITEM: BOX BOUNDS pp pp pp
-2.5615833775063237e+01 3.5601128117061187e+01
-8.1408863209164281e+01 9.1394157543363022e+01
-2.1035324467156940e+01 3.4903177627851115e+01
ITEM: ATOMS id type x y z v_StrAtomXX v_StrAtomYY v_StrAtomZZ v_StrAtomXY v_StrAtomXZ v_StrAtomYZ c_PEAtom v_VMS
4906 2 -18.8321 -67.3968 -14.1631 103.179 -411.269 -842.613 -223.316 32.0994 -59.154 -263.016 914.23
7478 1 -10.8696 -68.7088 -15.4722 724.484 213.082 1901.34 37.9516 -172.385 -127.06 -743.016 1546.05
4898 1 -17.5258 -67.3633 -15.076 532.357 1061.85 1228.67 476.956 -51.7269 81.9528 -735.268 1052.21
4896 2 -16.6392 -70.0529 -18.2048 -325.564 26.7048 -540.418 1.73981 18.4387 30.8624 -162.358 499.828
7392 2 -12.1833 -69.678 -15.451 540.689 -254.137 -892.589 -89.3937 67.0476 20.0262 -258.194 1259.16
4990 2 -17.151 -67.5834 -17.8568 114.08 -465.182 -701.172 -364.919 222.05 -162.236 -268.78 1074.39
7481 2 -14.741 -68.7668 -16.7455 197.986 -103.385 -892.206 -157.992 396.585 -190.096 -267.189 1267.25
4812 2 -17.0605 -68.7548 -15.7613 -531.187 36.7341 -684.456 -256.094 -105.084 203.467 -254.889 887.214
7396 1 -13.5158 -68.683 -15.7285 722.391 346.892 1835.78 -13.5591 68.5794 -55.7279 -755.243 1350.07
4982 1 -16.3416 -68.9001 -17.2591 914.468 281.035 1757.35 307.01 60.1683 -41.7257 -825.988 1394.43
7486 2 -12.1716 -67.5889 -16.1828 181.836 -148.411 -1102.78 -55.6551 127.45 -91.8885 -296.23 1190.97
7399 2 -14.112 -67.9224 -14.4936 -548.454 -212.205 -752.028 -334.959 -256.611 325.318 -257.782 1036.63
7308 2 -10.4928 -67.9287 -14.189 -695.64 -58.5279 -963.831 155.582 231.763 220.421 -260.442 1014.01
2400 2 -19.8461 -66.5974 -18.6926 447.211 -400.793 -122.43 -257.392 540.172 -139.79 -280.375 1301.26
4904 2 -18.5899 -66.4619 -16.1365 -18.8352 -526.507 -178.576 -407.584 119.203 83.929 -320.346 874.235
4901 2 -21.2219 -66.3122 -15.3588 21.9827 -484.305 -514.022 -125.205 1.47489 -134.926 -295.748 611.479
2316 2 -22.2913 -66.0466 -17.7839 -443.735 -631.12 -80.1623 -83.9969 -117.907 27.6388 -267.582 548.261
2494 2 -22.2211 -66.2244 -20.5563 73.3485 -380.215 113.121 -98.8669 677.258 -267.109 -262.728 1358.21
4912 1 -19.7502 -66.2206 -14.8518 357.063 863.865 1154.6 348.557 53.355 -21.773 -730.111 929.061
2410 2 -23.9767 -65.7778 -15.7542 168.01 -551.871 -695.394 -222.593 -93.0694 -93.8365 -280.668 918.254
2486 1 -21.3814 -65.9512 -19.1472 1320.86 756.426 1091.91 -119.509 -71.0714 119.34 -768.129 585.235
2402 1 -22.4172 -65.6246 -16.215 491.668 691.741 1211.22 140.333 255.209 218.459 -770.856 900.813
2407 2 -23.8736 -64.3151 -20.4018 -367.585 -542.783 -49.9503 -60.4601 -241.449 165.656 -274.262 674.849
4985 2 -21.0713 -64.3736 -19.1651 -704.27 -627.183 -586.127 -42.6656 40.5994 -83.5224 -278.692 205.248
2408 2 -22.1916 -64.0825 -16.2285 -400.107 -346.405 -660.433 -244.347 -91.1234 -244.792 -276.636 684.42
2401 1 -24.7325 -63.4248 -19.2997 943.212 1034.31 736.003 -45.1858 -74.8507 157.063 -787.958 408.719
2409 2 -23.8966 -63.2526 -17.9448 -721.013 -601.821 -357.43 -33.4658 -0.392738 15.5607 -273.26 327.337
4897 1 -20.566 -62.9134 -19.0834 866.089 604.547 849.324 -106.555 64.677 398.699 -771.456 766.677
2403 1 -22.7714 -62.7024 -16.9727 782.295 779.499 962.529 44.633 31.5731 -226.086 -767.228 441.937
2406 2 -21.626 -62.1954 -18.0492 -202.318 -532.377 -167.546 -132.798 -303.221 -64.9312 -273.644 680.446
2412 2 -23.1698 -61.6207 -15.9233 -437.212 -570.958 -553.379 24.7467 -10.2592 56.6753 -283.263 166.238
2 1 -22.8212 -60.2738 -15.1685 813.384 594.016 951.342 6.82572 206.907 -83.6938 -793.565 496.994
11 2 -24.8456 -62.0555 -20.0968 -480.355 -679.14 -385.065 109.296 -62.6391 -133.837 -273.272 410.953
4905 2 -19.0368 -62.8772 -18.5627 -285.542 -551.739 -610.828 76.4053 -2.66631 -77.8573 -274.171 354.685
2507 2 -20.5744 -62.1174 -20.4767 -599.69 -508.38 -445.927 -34.7302 -30.218 -107.269 -277.318 242.524
2501 2 -21.2983 -60.35 -14.603 -176.967 -374.423 -609.651 -71.4096 7.24636 53.9773 -268.824 406.158
2416 1 -25.4148 -65.6218 -15.1072 321.336 844.166 1347.93 -335.419 -98.7307 122.31 -742.974 1096.42
2506 2 -18.752 -61.1009 -15.3164 -188.772 -489.174 -458.623 -64.3666 -131.305 107.825 -270.157 425.474
2512 1 -19.8768 -60.9494 -14.1458 824.199 729.262 1030.52 -15.3473 -56.9243 -72.6186 -799.286 312.114
10 2 -23.9542 -60.0824 -14.0752 -629.079 -574.582 -704.101 -86.2508 -20.7502 32.1283 -263.647 198.476
4900 1 -18.3815 -66.5421 -17.8867 1103.75 762.586 1182.02 138.335 33.2017 327.703 -740.753 729.455
4915 2 -19.497 -64.9516 -13.9346 -484.422 -307.399 -170.902 -25.8614 -74.5538 375.042 -277.672 717.484
9893 2 -10.6056 -65.7634 -15.3043 352.394 -259.518 -487.622 -188.186 362.333 -21.8442 -263.611 1033.24
7397 2 -16.1768 -66.5161 -14.662 235.297 -498.587 -504.863 292.978 202.861 -40.3996 -282.934 963.895
4903 2 -17.8316 -65.0506 -18.2088 -447.001 -303.78 -644.063 183.534 -83.0902 -184.381 -277.257 557.965
7394 1 -12.1587 -65.9488 -15.9366 957.301 316.795 1420.96 107.793 -31.4255 300.645 -769.551 1109.59
7402 2 -13.4111 -65.7686 -14.9686 113.255 -674.698 -682.926 69.253 -139.546 23.4838 -262.879 837.784
7400 2 -12.4196 -65.112 -17.2435 -439.98 -320.733 -529.612 -86.5777 217.958 -332.939 -271.04 728.349
7401 2 -14.1106 -63.9914 -19.1559 -240.354 -589.288 -377.359 -2.47526 254.776 -126.715 -277.138 579.345
7398 2 -11.5612 -63.8794 -19.3139 -285.898 -590.878 -587.631 1.79592 -99.7303 -116.867 -274.393 403.553
7395 1 -12.7485 -63.9141 -18.3046 550.679 909.925 933.457 -55.2838 76.3381 382.027 -789.339 776.241
7393 1 -15.2468 -63.374 -20.0931 726.899 1008.09 798.06 -7.58956 -72.529 414.392 -765.048 771.518
4899 1 -17.6201 -63.4789 -18.1195 383.307 622.155 833.658 -232.96 189.135 92.9871 -782.166 669.601
4908 2 -17.3903 -62.9748 -16.6485 -489.453 -189.674 -619.372 79.7285 -138.615 74.5878 -273.65 488.974
7404 2 -12.7424 -62.6328 -17.301 -401.161 -362.263 -317.374 85.5012 75.8552 157.62 -269.316 344.964
4902 2 -16.5246 -63.0505 -19.1191 -440.106 -584.76 -457.365 -1.75888 -128.402 -103.47 -278.173 316.724
2498 1 -17.3214 -61.5385 -15.8783 857.802 978.586 811.969 -173.532 72.2845 -112.49 -792.283 407.679
2504 2 -16.8485 -60.3347 -16.851 -533.074 -235.717 -530.05 170.929 -41.9305 -55.7824 -271.98 435.649
4994 1 -12.4735 -61.6294 -16.0664 936.992 878.254 1038.54 -20.7685 -129.469 -47.7439 -811.538 279.548
5000 2 -12.3976 -60.0665 -16.5212 -500.805 -80.4365 -522.456 108.726 63.6032 -47.3782 -260.393 490.524
5002 2 -13.6819 -61.7176 -14.9587 -399.432 -485.949 -209.257 -71.9527 -196.472 162.523 -255.525 520.271
4997 2 -16.1946 -61.6497 -14.7314 -404.543 -628.332 -528.94 65.1103 145.005 7.27398 -257.726 337.155
5003 2 -14.4976 -62.0647 -20.693 -268.37 -256.105 -477.31 201.003 -171.666 -192.775 -284.131 606.193
7493 2 -11.1029 -61.9279 -15.2978 -227.866 -552.72 -292.366 21.218 381.81 64.3837 -255.282 734.753
7408 1 -14.6775 -66.4019 -14.0566 884.973 925.27 996.247 -17.0425 45.6766 -262.718 -785.862 472.984
4913 2 -21.7205 -66.8077 -7.53484 -43.9252 -661.446 -71.6054 161.763 372.207 83.8518 -235.847 938.197
2422 2 -24.256 -65.6947 -8.17311 19.8782 -372.244 -673.324 -92.2103 -113.137 -34.6741 -265.857 655.732
2414 1 -22.6238 -65.7865 -8.41897 995.416 1198.19 670.906 -110.984 -85.1665 111.528 -796.859 555.205
2328 2 -22.3362 -65.4707 -9.94229 -691.28 -705.667 -372.767 -53.4589 -55.7331 -232.953 -257.79 535.661
2419 2 -25.3612 -64.6393 -13.8411 -343.934 -315.397 92.2004 116.464 217.453 247.491 -280.526 738.164
16 1 -25.2731 -60.7191 -13.6066 636.771 862.516 947.01 -113.664 133.348 -157.086 -817.548 493.26
2415 1 -22.3073 -64.2195 -10.8735 1061.85 1008.27 545.414 -5.17069 177.353 318.033 -816.279 799.863
2421 2 -23.614 -64.0936 -11.8034 -542.959 -560.532 -214.198 57.6061 161.604 27.0468 -268.707 452.401
2418 2 -21.0263 -64.2019 -11.8787 -365.659 -588.563 -305.599 42.8544 -242.737 -15.1199 -257.931 499.64
4909 1 -19.7687 -63.7735 -12.7852 966.497 878.088 865.176 -41.415 -60.3445 -18.7969 -801.815 162.032
2413 1 -25.0034 -63.7551 -12.4547 817.681 1192.83 880.236 36.739 -0.462312 8.88621 -807.6 354.213
23 2 -25.0522 -62.1629 -12.9384 -494.169 -137.511 -479.748 -53.4063 -15.3376 -89.2587 -256.718 394.25
2424 2 -22.0724 -63.0114 -9.80381 -537.137 -478.899 -193.126 82.6103 9.29596 336.265 -247.495 679.453
14 1 -22.2588 -61.8931 -8.60837 1284.86 1299.46 865.67 18.114 37.6666 -119.319 -848.21 479.588
20 2 -22.0957 -60.4091 -9.34038 -633.61 -135.433 -444.041 13.9636 -73.1716 -115.614 -237.643 496.412
2519 2 -20.026 -62.3954 -13.5309 -522.734 -417.152 -529.957 3.46555 36.553 -3.80599 -272.523 126.689
9916 1 -10.3712 -65.4168 -7.56416 777.61 945.94 1249.95 -36.1964 -134.236 -155.535 -790.005 549.996
22 2 -23.7419 -62.0001 -7.96113 -363.632 -571.033 -216.461 -14.6445 -283.758 16.0921 -247.312 581.527
4918 2 -19.1887 -65.6777 -7.42385 72.7108 -436.782 -501.238 96.0959 -314.498 22.1985 -267.709 788.978
2513 2 -21.1218 -61.8045 -7.46136 -340.437 -756.968 -105.949 80.6906 265.02 160.49 -238.566 796.031
2420 2 -21.7693 -64.6498 -7.57372 -108.591 -869.003 -406.095 -26.4736 233.742 74.8107 -233.941 789.498
7499 2 -10.1691 -61.886 -20.2915 -517.518 -57.1752 -536.63 -61.0582 45.2812 -220.966 -267.126 620.397
2518 2 -18.582 -61.9986 -7.1041 -383.328 -466.805 -416.692 9.76953 -334.312 202.258 -244.506 680.883
4917 2 -18.4722 -63.6794 -11.8342 -322.188 -575.949 -306.386 -50.877 246.494 31.8554 -260.032 511.608
28 1 -24.9245 -61.7123 -6.88112 1277.31 1128.55 1027.52 184.164 114.978 -125.979 -846.589 486.196
9928 1 -10.5383 -66.3693 1.3456 1646.39 731.971 1318.58 -76.9822 161.956 -194.917 -887.876 924.293
7320 2 -12.4545 -66.8884 -10.1351 -394.709 -50.1138 -318.949 88.2962 38.157 -34.5523 -172.799 360.163
9905 2 -11.3912 -66.6472 -7.62189 -7.39776 -525.655 -789.376 230.265 232.969 257.786 -235.038 998.031
7409 2 -16.722 -66.7375 -7.75664 -7.57452 -858.45 -426.087 39.4294 151.541 17.9405 -243.061 785.852
7505 2 -10.8154 -61.2878 -7.29635 -152.099 -556.185 -410.713 42.515 206.288 123.354 -254.972 551.724
4824 2 -18.0468 -65.2471 -9.75743 -549.877 -486.784 -66.0075 8.07635 -96.7774 -327.987 -248.036 747.396
7406 1 -12.5363 -66.2808 -8.73955 750.718 664.217 1441.84 -388.496 -57.5998 102.735 -822.224 1019.47
7414 2 -14.0065 -65.9914 -8.17065 240.533 -325.996 -598.521 58.6102 -323.405 -61.1184 -262.517 940.693
4910 1 -17.7749 -65.6314 -8.18847 624.583 1231.83 1040.47 92.0948 103.494 68.6956 -801.467 600.752
5008 1 -14.8752 -61.5543 -13.8641 803.727 1110.81 936.818 -118.216 -219.02 -111.984 -818.587 542.77
2516 2 -17.7681 -60.2084 -8.78928 -641.07 -289.329 -544.169 41.1193 -4.22895 1.78731 -244.457 322.743
7411 2 -14.7216 -65.4883 -12.7964 -552.694 -129.724 -421.412 90.9522 59.0673 454.626 -266.019 892.16
7412 2 -11.5814 -64.8194 -8.78727 -12.5147 -666.608 -239.125 157.658 422.953 -148.828 -283.143 1004.32
4920 2 -17.7163 -62.7718 -9.44668 -652.579 -499.219 -347.283 167.154 -29.9513 265.518 -244.964 606.562
7405 1 -14.6306 -64.138 -11.8391 1032.52 1176.65 1175.87 -141.942 128.381 -128.519 -809.19 424.382
4914 2 -15.9509 -64.0009 -10.9312 -88.8719 -553.351 -577.198 -8.73081 -92.9357 60.2731 -257.738 514.222
7413 2 -13.2148 -63.9404 -10.8816 45.4841 -560.304 -58.9859 183.178 511.703 45.2923 -261.865 1098.61
4911 1 -17.5187 -63.9113 -10.5481 1111.01 1113.61 726.186 25.5064 51.0394 -0.733227 -825.463 398.581
7407 1 -11.7693 -63.8179 -10.1844 868.271 1027.72 866.985 -146.02 22.5608 -83.2649 -803.815 334.546
5015 2 -14.7764 -62.8952 -12.8985 -485.669 -61.1715 -460.989 -32.9931 141.871 -209.251 -252.838 604.43
5006 1 -11.9151 -61.356 -8.45624 922.604 903.283 992.498 58.6222 -71.6277 -232.843 -821.911 441.541
2510 1 -17.5012 -61.7152 -8.21687 1119.6 1153.07 909.241 -149.771 258.452 -145.078 -847.164 619.065
5011 2 -14.9782 -60.193 -13.0095 -540.321 -262.368 -511.852 -92.2908 -165.468 154.504 -256.388 499.461
7416 2 -11.4893 -62.3783 -9.61935 -554.921 -613.825 -521.43 54.0682 98.0771 60.3565 -256.764 234.777
4916 2 -16.5134 -64.5938 -7.79084 143.203 -747.932 -578.402 -29.6043 12.6518 49.4731 -229.892 825.978
5014 2 -13.3322 -61.8695 -7.89115 -205.356 -491.959 -487.794 89.1859 -194.529 15.6392 -249.731 468.066
5009 2 -15.9824 -61.6532 -7.59525 -278.659 -698.168 -427.193 34.0747 113.333 96.3434 -243.894 453.433
7420 1 -15.4376 -65.8296 -7.32156 822.876 1222.01 1263.87 -188.507 -61.5736 -81.572 -798.921 561.876
5012 2 -11.9834 -59.9279 -9.25357 -542.715 -313.793 -396.996 27.1049 13.6979 -192.9 -253.021 393.292
7410 2 -10.6274 -64.1434 -11.2194 -315.295 -779.296 -341.556 81.6718 -110.109 -26.6428 -256.005 512.166
7332 2 -12.7891 -67.5873 -2.09706 -530.8 -344.947 -465.112 21.2216 22.2858 -143.765 -118.816 302.48
2428 1 -25.6216 -65.7823 -7.40336 727.212 1147.99 817.047 -160.263 -28.2339 -89.9217 -813.446 501.022
4924 1 -20.6859 -65.6525 -6.79599 1104.77 1296.2 782.879 -89.9389 -73.3853 -77.0282 -796.97 510.002
2431 2 -25.2267 -65.5076 -5.88583 -823.594 -348.828 -458.609 144.087 51.8695 240.768 -239.472 655.437
4927 2 -20.607 -65.2608 -5.25575 -690.907 -442.875 -185.82 138.292 76.9645 273.706 -255.671 700.888
2432 2 -23.5855 -64.7632 -1.20173 -565.137 -416.406 -85.5534 229.086 -311.376 -160.531 -265.25 840.481
2433 2 -23.9701 -64.3836 -3.78252 -643.98 -688.765 -137.458 -87.6783 127.929 3.11587 -238.103 594.511
2425 1 -25.2099 -64.2748 -4.85507 1270.03 1444.33 545.292 32.892 206.594 -359.494 -845.92 1095.88
2430 2 -21.5528 -64.1343 -3.13465 -298.295 -579.087 -206.263 73.1041 -535.658 -84.6574 -239.987 1005.72
4921 1 -20.2625 -64.1489 -4.15607 1434.7 1195.85 784.686 -46.6677 190.158 -301.215 -836.505 843.516
2427 1 -23.0777 -63.9717 -2.53791 1332.89 1044.75 726.977 -79.3941 1.43625 48.2138 -837.115 549.049
2531 2 -20.1064 -62.7581 -5.03139 -576.08 -70.3696 -36.1511 66.4034 -85.598 -297.662 -251.097 758.443
2436 2 -23.2606 -62.3572 -2.34862 -678.41 -363.09 -511.081 -2.62532 -2.95454 -100.759 -251.573 324.295
2524 1 -19.9809 -61.6482 -6.26698 1315.05 1119.88 1241.1 -282.221 183.258 -154.704 -835.092 663.794
2527 2 -20.1023 -60.1088 -5.7197 -532.254 -60.041 -494.427 -22.7414 -177.855 195.086 -249.164 645.893
31 2 -24.6418 -60.144 -6.42588 -658.979 -128.739 -496.552 49.5133 -15.6014 59.0662 -243.709 489.86
26 1 -23.0346 -60.8221 -2.23192 1208.55 680.574 936.942 -158.238 135.221 228.607 -838.15 704.188
34 2 -24.1105 -60.187 -1.16254 -390.077 -526.507 -328.294 -10.262 -311.827 -19.5391 -233.1 569.235
2525 2 -21.5175 -60.5073 -1.72095 -298.191 -519.301 -473.611 145.167 22.3373 18.2723 -247.662 326.486
35 2 -25.0358 -62.8391 -5.69758 -631.335 37.5238 -208.876 89.9446 -265.454 -247.821 -247.259 873.608
2536 1 -20.0471 -60.7557 -1.10656 1039 1054.4 875.042 -85.5124 60.1497 90.6449 -845.002 295.102
2543 2 -19.9836 -62.3121 -0.689 -617.512 -367.906 -433.261 12.1584 -23.2452 -193.48 -246.652 405.745
2530 2 -18.8004 -60.4865 -2.07714 -161.715 -707.395 -572.562 33.7986 -110.949 -34.0262 -231.003 534.976
4929 2 -18.8399 -64.3949 -3.29779 -166.54 -602.566 -220.077 -42.1072 306.424 28.5593 -241.925 677.564
40 1 -25.3607 -60.74 -0.22835 1222.35 1045.99 989.802 96.295 170.528 -92.0461 -836.339 429.705
2434 2 -25.2134 -66.5714 0.239776 -53.348 -589.198 -419.34 34.8372 -403.835 -67.4363 -243.049 855.278
2426 1 -23.8742 -65.6666 0.0706219 1160.03 1062.81 960.935 -97.5182 342.115 -119.338 -781.268 672.396
47 2 -24.9118 -62.2178 0.300355 -543.931 -190.872 -747.74 -84.0149 114.495 -125.168 -252.284 587.92
5032 1 -15.1914 -60.5956 0.174771 1259.16 965.615 855.748 -181.125 30.4769 -221.409 -852.024 615.433
7418 1 -12.8079 -66.5185 -1.03112 1441.91 830.851 1330.85 -21.0295 -20.9637 135.927 -936.036 613.138
7422 2 -11.2478 -64.0921 -3.9495 -524.027 -725.468 -377.698 103.28 -115.407 87.3132 -233 431.618
7426 2 -14.4353 -66.2583 -0.573145 52.4341 -605.637 -643.706 -10.5672 10.9562 -151.921 -209.946 727.663
5020 1 -14.5905 -61.6949 -6.84065 910.264 1002.87 1105.86 -57.5632 80.1442 -50.4261 -844.97 256.046
7423 2 -15.041 -65.3979 -5.81183 -668.477 -511.856 -310.125 312.421 34.5801 304.593 -242.043 819.487
7424 2 -12.3072 -65.1545 -1.76777 -647.684 -725.427 -511.939 93.3745 -143.6 -188.904 -209.463 479.684
4928 2 -16.5958 -64.8948 -1.72889 -407.153 -471.86 -91.4965 -104.022 144.568 -235.887 -237.431 621.563
7425 2 -13.8285 -64.3992 -3.68767 -419.53 -835.896 -421.729 65.626 -13.0389 53.9173 -230.828 441.137
4926 2 -16.4339 -63.9778 -4.2506 -228.631 -712.173 -292.828 175.098 -234.491 -35.4865 -228.002 683.818
4923 1 -17.3467 -64.0135 -2.87743 1076.84 1079.97 1005.44 -168.225 89.3745 -150.855 -858.024 427.16
7419 1 -12.4468 -64.0835 -2.91296 933.441 1364.77 645.079 -173.885 77.177 2.15283 -880.933 708.64
7417 1 -14.9003 -64.163 -4.83009 1188.93 1283.91 568.404 -275.31 140.631 -388.634 -855.457 1092.17
2528 2 -16.7868 -60.1498 -3.59227 -636.333 -371.221 -334.153 -57.8884 71.8252 -254.383 -241.111 548.769
4932 2 -17.3051 -62.4736 -2.43169 -679.213 -591.875 -615.693 232.534 13.7631 19.4562 -238.112 412.353
5027 2 -14.5184 -62.8575 -5.74498 -575.998 -306.035 -320.504 47.2171 -89.0407 -86.8953 -247.175 349.726
7428 2 -12.5882 -62.5826 -2.31289 -523.285 -472.668 -395.621 102.762 34.1016 163.931 -234.862 358.033
5023 2 -14.3411 -60.1719 -6.28588 -534.677 122.598 -598.096 13.7529 -59.6868 109.213 -242.335 724.399
2522 1 -17.1939 -60.9192 -2.26405 1160.06 901.168 923.401 -126.12 103.908 138.164 -851.922 446.25
5018 1 -12.529 -61.1611 -1.56134 998.277 1244 1031.33 -41.2519 93.495 -84.8598 -859.421 326.009
5021 2 -16.4136 -60.4369 -0.939302 -376.756 -542.979 -116.781 59.62 212.025 70.184 -243.211 546.567
5026 2 -13.8691 -61.0565 -0.637203 -118.586 -716.73 -482.704 37.6825 -171.841 20.7197 -237.514 605.557
7517 2 -11.1163 -60.9252 -0.804675 -310.388 -613.07 -529.739 101.806 118.109 68.733 -241.688 400.566
7432 1 -15.7984 -65.4571 -0.39181 1248.73 1199.42 1053.38 -144.675 148.938 -113.636 -870.503 446.142
4955 2 -18.2001 -67.4069 5.59866 -348.563 -604.622 -303.505 -166.672 -302.849 95.6389 -212.984 681.957
7421 2 -16.8989 -66.0897 0.648773 -364.758 -423.305 -412.835 72.7519 -370.489 3.3179 -237.191 656.218
7440 2 -12.3362 -62.0327 4.17449 -638.7 -731.883 -704.31 5.06482 35.7593 56.0101 -231.452 142.122
4930 2 -19.4309 -66.815 1.31093 -98.4525 -557.383 -694.02 -61.3887 254.423 -125.267 -238.375 737.949
7437 2 -13.6286 -63.2623 2.23869 -330.148 -552.094 -614.145 -48.4184 126.499 -42.4602 -242.223 356.833
5024 2 -12.6825 -59.9337 -2.63385 -545.837 -407.842 -352.908 27.2964 -18.3615 -246.058 -231.169 463.164
4925 2 -22.3965 -66.3169 0.43502 391.542 -340.08 -842.223 -361.451 74.6216 148.057 -248.343 1276.4
4943 2 -21.4847 -66.1926 2.70786 -737.765 -543.904 -305.977 -31.4256 -164.411 -46.1515 -226.38 480.377
4937 2 -20.3787 -66.017 5.11338 -514.471 -539.947 -568.73 -31.3905 98.0973 -34.8689 -236.182 194.123
4936 1 -20.9217 -66.1288 1.16399 1305.58 865.518 1354.59 28.4324 -19.7646 -276.907 -830.448 671.756
2446 2 -23.0638 -65.869 4.84474 -168.707 -553.337 -344.018 38.828 -250.533 3.53744 -221.968 551.457
4948 1 -19.0198 -66.0402 5.9715 993.128 1051.44 749.492 210.609 292.885 -112.522 -852.1 710.888
2442 2 -20.7969 -62.3786 1.82438 -657.025 -657.719 -401.819 -8.75783 -108.594 -19.0559 -243.038 319.382
2438 1 -21.5709 -65.5457 4.19088 1262.8 1042.96 849.813 169.07 -113.029 92.3692 -864.368 527.044
2445 2 -23.1941 -62.9921 2.14804 -800.069 -578.647 -759.419 -80.1303 -57.6759 32.3147 -257.209 272.129
4933 1 -19.8863 -63.0904 0.721609 1070.99 1006.1 1020 76.6796 20.2797 196.618 -828.302 371.956
2452 1 -24.3279 -65.1815 5.65559 991.194 1549.01 831.271 -144.862 102.11 -164.601 -882.009 775.535
46 2 -23.71 -60.8809 6.08252 -516.226 -602.593 -548.338 49.5171 -163.721 -178.957 -233.785 435.388
2443 2 -24.7986 -64.6695 1.20338 -123.263 -522.414 -628.457 -62.2236 -551.392 71.9244 -297.513 1073.37
4939 2 -20.52 -64.5976 0.686084 -478.599 -101.882 -664.547 256.046 -137.494 -73.4969 -249.051 718.428
2441 2 -24.4829 -63.7021 5.07644 -397.507 -378.744 -86.0607 23.8201 -91.3831 12.2329 -166.581 344.545
2444 2 -21.4506 -63.9922 3.81973 -667.819 -438.072 -438.564 21.7264 25.957 -178.318 -240.713 389.23
2437 1 -24.6306 -63.0692 1.6163 612.533 588.171 1216.55 -212.531 169.46 -65.3819 -805.896 783.985
2439 1 -21.898 -62.6767 2.97154 895.444 974.486 938.363 -49.892 -100.238 -386.927 -847.514 701.031
2448 2 -22.1817 -61.4345 3.90552 -674.753 -695.425 -538.446 -103.375 -72.5437 106.666 -236.782 322.187
38 1 -22.3905 -60.6179 5.2589 1312.15 950.953 759.797 19.5471 207.169 -84.3793 -869.429 622.341
2537 2 -21.1062 -60.9639 6.23445 -321.351 -546.235 -437.28 -108.536 153.51 -18.8927 -224.492 380.852
4836 2 -18.4981 -64.9308 2.55372 -746.785 -471.236 -799.597 56.2844 -142.812 196.422 -229.638 528.871
2542 2 -18.6492 -61.8148 6.46377 -700.485 -715.706 -491.946 90.039 -74.1244 196.705 -236.611 451.417
4941 2 -18.3805 -62.9228 1.31107 -407.253 -735.541 -511.656 96.2627 214.689 166.966 -244.938 578.018
4944 2 -18.1813 -62.5031 3.94026 -715.18 -472.618 -337.757 226.623 35.0484 243.032 -247.628 666.849
5033 2 -16.1511 -61.8645 5.5998 -298.478 -640.314 -539.65 146.326 169.251 81.7092 -230.779 512.616
2503 2 -20.1855 -59.5986 -19.8457 -520.226 -431.378 -375.15 92.4758 125.187 161.756 -264.065 408.922
7444 1 -14.1761 -66.2397 5.90349 1146.83 1053.17 1012.97 -78.5397 214.008 -186.926 -866.279 524.292
7435 2 -15.2913 -64.0826 0.375963 -605.021 -553.188 -518.845 225.416 25.3057 66.2182 -228.559 416.125
4940 2 -17.2614 -66.9583 3.06697 -786.697 -483.214 -335.049 75.9048 205.485 -79.5945 -233.199 567.435
4934 1 -17.068 -66.7214 4.61339 1126.08 1161.88 1005.39 141.716 -132.486 99.1117 -845.073 403.169
7433 2 -15.5178 -66.6926 5.02696 -31.8269 -383.874 -604.338 191.658 287.267 -34.6949 -231.969 782.005
9917 2 -11.8191 -66.7096 0.28731 -22.1521 -419.804 -412.426 -5.49039 431.024 64.8541 -205.39 851.647
5038 2 -13.6386 -61.5019 6.42577 -424.373 -723.836 -436.721 151.022 -137.201 -35.357 -235.199 463.441
7529 2 -10.9141 -61.6578 6.39414 -183.938 -706.412 -397.052 -33.7209 256.822 112.985 -223.099 668.304
4942 2 -17.8017 -65.3117 5.25334 -521.365 -628.589 -432.39 -265.976 -136.894 264.664 -214.325 712.422
7447 2 -14.3199 -64.6921 6.44103 -516.808 -553.267 -9.76834 57.6781 -175.77 346.63 -209.256 860.248
7431 1 -12.2342 -63.0952 3.02391 660.964 1021.2 1109.08 72.3317 204.161 -251.911 -863.036 707.296
5039 2 -15.5257 -61.6969 1.29841 -604.878 -472.653 -474.03 26.6463 -10.034 -108.53 -238.547 234.674
7344 2 -11.1347 -66.6678 2.84444 -684.507 -580.765 -509.17 126.898 -141.423 -187.574 -217.861 487.009
7436 2 -11.7254 -64.4476 3.77067 -475.663 -504.966 -617.918 31.7862 20.7748 -265.286 -230.892 482.061
7429 1 -15.1053 -63.214 1.68599 658.369 979.398 1215.42 -293.329 -91.8834 -13.53 -855.745 720.097
2540 2 -17.8674 -60.0506 4.80364 -635.585 -419.622 -560.09 5.18304 28.857 76.0942 -244.641 236.612
4935 1 -17.8265 -63.4235 2.71283 954.913 970.934 1018.06 -93.1889 -13.8107 -330.641 -840.808 598.187
7434 2 -11.1671 -62.5385 2.01041 -442.333 -547.222 -722.17 -56.868 -98.0947 -47.0973 -232.129 324.319
4922 1 -18.0211 -66.2822 1.80332 1301.89 621.459 1103.07 -165.075 -157.169 127.498 -849.501 756.211
7438 2 -12.8295 -66.4677 5.05265 -169.44 -430.996 -505.815 72.7745 -353.343 -119.847 -228.777 726.025
4938 2 -16.2437 -63.6682 2.74455 -298.767 -571.466 -737.976 85.7746 -59.5534 23.6265 -237.01 426.478
2534 1 -17.6955 -61.6264 5.20093 1229.2 1191.16 669.671 -275.488 67.5806 -112.289 -854.252 756.6
5030 1 -12.2772 -61.2813 5.56554 1108.26 1100.4 897.298 -43.8444 5.29815 -173.128 -867.991 372.395
7430 1 -11.5097 -65.9921 4.19702 1100.9 963.557 1262.66 -47.956 153.434 186.867 -876.66 499.529
9889 1 -10.2597 -63.4982 -20.1886 727.67 1083.26 1254.28 -43.5798 39.7346 361.245 -770.48 786.406
32 2 -23.1346 -59.9038 -3.53129 -701.63 -353.762 -721.227 57.4057 -66.2119 8.96884 -241.61 389.221
5044 1 -15.1479 -61.4321 6.7927 751.737 1310.51 957.456 -135.582 54.9278 33.9409 -876.852 554.307
4951 2 -19.3568 -65.3834 7.36703 -763.806 -202.859 -382.323 -205.115 -156.779 230.411 -236.68 778.09
2456 2 -21.7466 -65.0987 12.0731 -686.71 -413.11 -73.3698 102.142 86.7841 -209.36 -231.09 684.56
2457 2 -23.2433 -64.5645 9.7189 -241.105 -715.899 -318.128 63.5593 216.86 -25.3535 -229.744 591.544
2454 2 -20.6336 -64.5722 9.67275 -266.111 -613.247 -322.829 15.017 -439.358 314.061 -227.502 989.807
2451 1 -21.9378 -64.2554 10.638 1310.82 1342.7 1079.24 -337.427 131.718 -82.5419 -862.593 689.993
2449 1 -24.3564 -64.2401 8.58285 1225.06 1027.9 761.811 -103.92 108.698 33.0805 -869.388 482.974
4945 1 -19.6424 -64.2022 8.45945 1475.7 902.546 817.875 -37.3447 19.5491 -63.9615 -865.111 633.887
2460 2 -22.2185 -62.7032 11.1528 -547.356 -133.491 -500.024 -52.7443 -144.79 206.864 -233.412 594.602
59 2 -24.1556 -62.7544 8.10313 -660.793 -602.947 -464.29 -5.55517 -23.8441 -211.421 -229.503 408.028
2555 2 -20.3822 -62.8958 7.94504 -866.515 -438.565 -598.354 20.4733 30.9781 207.843 -229.332 523.473
2549 2 -21.1237 -61.0929 12.8572 -323.947 -534.528 -506.432 59.4845 73.5876 10.4769 -230.851 257.696
58 2 -23.7944 -61.4005 12.8634 -212.116 -695.912 -498.922 43.5833 -228.03 187.293 -223.191 666.7
50 1 -22.4503 -61.3447 11.9825 1066.11 1010.72 1186.69 -160.534 105.262 -141.79 -880.051 441.764
56 2 -22.7351 -60.0043 11.0779 -650.317 -314.183 -688.64 -20.4565 29.4578 -69.1834 -219.758 381.516
55 2 -24.202 -60.1415 8.36176 -717.293 -173.746 -777.478 -139.182 -127.39 24.2835 -214.589 663.587
2551 2 -19.8747 -60.2658 8.26739 -650.837 -342.929 -625.803 -65.1614 -152.619 103.76 -235.504 450.156
52 1 -24.5365 -61.3512 7.38446 1018.64 882.799 1142.76 -83.5195 107.028 -53.8517 -872.887 338.69
2548 1 -19.9607 -61.5141 7.28428 1227.9 860.808 848.28 -107.816 135.2 -179.353 -866.788 570.726
2455 2 -24.0713 -65.1109 7.24543 -569.418 -697.034 -143.242 32.4067 -78.9284 162.325 -226.672 594.294
2560 1 -19.6067 -61.3462 13.4192 1179.64 1059.43 808.036 -301.691 5.287 -79.2016 -868.792 632.316
2453 2 -25.4406 -65.6527 13.3229 -366.243 -392.314 -655.176 174.106 239.283 -5.51859 -247.101 582.605
2554 2 -18.5107 -61.3538 12.2408 -301.904 -599.278 -304.209 86.7654 -199.649 118.736 -240.023 521.737
2450 1 -21.9178 -65.2066 13.6477 702.858 1130.3 1100.05 -226.72 15.0058 -159.572 -860.28 634.005
64 1 -25.2109 -61.2309 13.6991 1359.76 943.398 629.365 -163.067 -57.3687 -279.76 -868.417 852.743
4953 2 -18.1234 -63.6272 8.72554 -271.49 -535.032 -712.704 237.999 -123.235 -5.69729 -226.635 602.855
2458 2 -22.9692 -66.3721 14.1322 -85.3683 -567.918 -652.39 11.3232 -267.091 24.156 -206.946 704.911
2467 2 -23.1597 -64.1998 14.0497 -206.071 -943.304 -576.871 178.271 -159.972 114.679 -215.816 786.897
7451 2 -14.2387 -66.6361 7.43081 -565.837 -295.504 -431.912 -92.5479 -115.71 501.775 -202.895 935.952
7448 2 -12.1888 -65.3452 11.34 -512.42 -320.279 -400.297 0.72855 99.9649 156.025 -114.248 361.882
7441 1 -14.394 -65.0602 8.11797 1080.03 1109.89 1220.56 21.8859 55.6562 -466.529 -858.037 824.695
7449 2 -13.113 -64.6823 8.94363 -560.595 -544.936 -612.459 78.5906 157.276 87.7874 -214.911 345.838
4950 2 -15.6623 -64.5723 8.88887 -654.404 -450.415 -528.375 -140.436 -133.603 295.651 -233.577 637.754
7443 1 -12.0515 -64.4134 10.1356 1234.53 954.814 1191.86 -120.776 -149.18 -412.556 -949.062 830.217
4956 2 -16.7287 -62.5314 10.4617 -658.353 -458.455 -427.929 -134.981 -192.706 249.996 -229.59 632.893
4947 1 -16.5888 -63.2816 9.07708 1179.88 1007.04 1053.62 115.181 39.0385 -396.166 -870.872 734.307
7452 2 -12.2674 -62.9289 10.6883 -578.863 -859.586 -380.192 30.6435 -67.1191 331.269 -207.143 720.83
5051 2 -15.7582 -62.2644 8.01598 -356.936 -531.71 -532.626 205.029 -246.066 -87.7454 -223.291 601.299
2546 1 -17.0537 -61.3443 11.5231 1295.42 1153.9 792.489 -155.662 -68.0173 -158.148 -863.47 602.823
5042 1 -12.3336 -61.7889 11.8065 1034.21 1318.04 1107.95 -138.844 -141.834 -147.369 -896.002 498.404
5050 2 -13.416 -61.8375 13.0323 -471.859 -719.936 -226.335 -7.91581 -185.812 113.239 -219.392 570.061
5048 2 -12.7454 -60.4052 10.9914 -528.559 -372.575 -423.097 -69.0622 131.565 -193.279 -221.368 444.196
7446 2 -10.5313 -64.4993 9.44068 -288.384 -561.871 -580.127 -48.1088 -180.958 197.306 -197.852 549.627
5045 2 -15.9152 -61.4739 12.6599 -549.404 -731.86 -426.712 26.7182 148.337 -63.0259 -227.071 388.329
5056 1 -14.8348 -61.7332 13.7914 1139.48 1299.13 612.62 -39.7278 -141.58 202.381 -882.965 758.238
7541 2 -10.8864 -61.5937 12.4544 -503.218 -706.674 -508.455 85.4705 143.245 72.6942 -222.706 373.741
4989 2 -17.5276 -63.9924 32.0767 434.349 -509.307 -168.934 -77.3547 505.318 -53.4586 -314.092 1215.61
5080 1 -14.3091 -61.4397 29.1173 552.392 1247.83 845.926 -237.096 23.7599 329.928 -796.19 928.739
7485 2 -12.2104 -64.4464 31.8552 -83.5384 -934.648 -536.247 -59.9293 223.064 -152.266 -273.799 879.562
2464 1 -24.2577 -65.3814 14.38 903.783 994.355 1113.04 -89.6684 248.294 -301.425 -843.283 717.411
2468 2 -22.6469 -65.044 17.2775 -503.171 -441.283 -153.153 31.5563 51.1554 76.6085 -140.25 364.863
2567 2 -19.5568 -62.7004 14.2286 -656.322 -604.051 -329.575 135.517 78.1366 -151.418 -225.932 484.365
4949 2 -20.6468 -64.9418 14.5059 -632.748 -517.043 -509.413 116.747 276.894 239.489 -224.468 676.236
2471 2 -25.0686 -64.8733 15.6166 -767.212 -234.658 -785.15 -95.6127 -159.183 301.507 -231.831 818.322
2563 2 -19.3729 -60.141 14.4707 -626.715 -526.706 -296.446 5.46841 -72.2663 175.571 -234.838 440.775
4957 1 -19.9695 -63.7689 15.4066 1303.36 1213.7 1161.87 -311.026 -175.394 -134.206 -884.224 672.239
2466 2 -21.2111 -63.0893 16.2609 -331.539 -618.618 -297.88 7.8769 -288.214 143.257 -212.82 635.741
2463 1 -22.4083 -63.5212 17.3288 1073.71 1467.56 660.764 25.9162 -144.15 -502.329 -906.997 1144.4
2469 2 -23.8115 -62.8422 16.8302 -687.947 -768.423 -550.139 33.1197 77.271 194.831 -219.86 414.293
2472 2 -22.1563 -62.8006 18.7142 -686.444 -655.895 -404.128 17.1059 -87.136 203.047 -226.957 468.349
2461 1 -25.1023 -63.3345 16.1025 1026.03 1167.11 882.64 103.821 17.1841 -500.92 -856.745 920.153
62 1 -22.5156 -61.5797 19.6808 1118.43 1365.83 733.154 -125.98 -114.112 -5.26493 -845.295 625.876
68 2 -22.6906 -60.2944 18.6543 -509.596 -420.127 -164.021 109.929 -80.1379 -304.871 -244.927 656.404