ITEM: TIMESTEP
940000
ITEM: NUMBER OF ATOMS
29952
ITEM: BOX BOUNDS pp pp pp
-2.5615833775063237e+01 3.5601128117061187e+01
-9.2707522258367973e+01 1.0269281659256671e+02
-2.1035324467156940e+01 3.4903177627851115e+01
ITEM: ATOMS id type x y z v_StrAtomXX v_StrAtomYY v_StrAtomZZ v_StrAtomXY v_StrAtomXZ v_StrAtomYZ c_PEAtom v_VMS
4896 2 -16.0689 -71.3421 -17.7471 -361.509 90.1401 -483.155 -40.144 35.989 40.5748 -166.331 536.083
7392 2 -11.9703 -70.7029 -15.1607 459.138 -508.479 -937.962 -6.43617 108.923 88.1052 -261.083 1263.06
4982 1 -15.9418 -70.0683 -16.9328 917.316 523.741 1601 198.069 -113.305 -40.6419 -821.282 1025.94
4812 2 -16.7494 -69.7996 -15.4788 -421.925 -316.169 -776.995 -218.443 -116.585 164.522 -261.562 663.28
7396 1 -13.1978 -69.6993 -15.4234 367.895 206.806 2090.19 6.46916 -11.5932 30.6569 -747.706 1809.15
7481 2 -14.3828 -69.702 -16.4997 99.8943 -176.637 -769.814 -62.1496 337.996 -135.428 -274.303 1000.85
7486 2 -11.8749 -68.6827 -15.7941 56.7092 -486.001 -1212 -148.588 98.8253 -86.5036 -298.971 1154.82
7399 2 -13.7972 -68.9184 -14.1221 -427.902 119.778 -724.939 -273.527 -193.907 261.461 -266.305 1045.56
7478 1 -10.5992 -69.7885 -15.111 477.63 222.814 2032.85 113.41 -22.6143 75.8117 -725.878 1713.85
4990 2 -16.8012 -68.7525 -17.6027 101.511 -86.4169 -671.46 -492.799 245.526 -168.052 -259.214 1217.24
4898 1 -17.1849 -68.4776 -14.8291 352.484 704.252 1275.79 475.012 -6.0778 -141.518 -727.543 1178.37
4906 2 -18.4607 -68.4043 -13.9115 23.3243 -519.114 -986.685 -119.876 15.9397 25.1491 -272.013 901.255
7332 2 -12.3073 -68.3627 -1.98613 -554.468 -181.934 -458.245 70.2575 41.4254 -153.762 -122.381 450.642
7308 2 -10.2575 -68.9892 -13.7559 -553.976 -46.3023 -714.161 160.452 164.845 360.237 -266.46 955.397
2507 2 -20.2075 -63.3568 -20.3858 -596.297 -634.555 -553.766 47.0223 -57.2343 -97.1727 -268.005 222.908
2412 2 -22.7581 -62.8655 -15.9076 -475.201 -637.363 -717.543 41.1813 -60.7893 77.6935 -259.03 282.86
11 2 -24.9048 -63.229 -20.1963 -493.745 -373.457 -440.462 -101.838 -1.21028 -217.427 -252.189 428.765
2406 2 -20.9857 -63.446 -17.8981 -654.544 -494.926 -455.153 -75.267 -175.86 -88.798 -266.028 408.46
4897 1 -20.05 -64.0767 -18.9999 607.85 675.007 693.164 -30.8298 144.344 516.639 -787.693 933.897
4905 2 -18.548 -63.9356 -18.5453 -553.91 -550.787 -616.299 34.2617 -35.7495 -97.8104 -271.986 200.383
2403 1 -22.2629 -63.8406 -16.9922 744.168 505.424 986.611 98.1972 101.423 -216.527 -798.335 611.637
2409 2 -23.343 -64.0374 -18.1677 -673.542 -601.419 -526.076 -116.527 31.2685 -142.015 -258.86 347.111
2401 1 -24.3931 -64.4784 -19.2566 862.457 1019.84 727.342 42.8869 71.119 16.6024 -811.401 292.932
2408 2 -22.005 -65.2501 -16.3016 -432.948 -574.7 -678.843 -137.87 -22.8149 -152.862 -268.42 417.599
4985 2 -20.4579 -65.6058 -19.1362 -628.33 -614.367 -569.549 85.0172 -32.0126 -38.9982 -274.049 179.305
2407 2 -23.6803 -65.5258 -20.1715 -518.406 -594.602 -490.65 -47.3731 -109.726 -42.7316 -266.806 238.791
2416 1 -24.9436 -66.7419 -14.9187 332.224 788.984 1211.82 -378.149 -199.725 -63.2659 -761.106 1068.28
2402 1 -22.0754 -66.8455 -16.1786 337.279 919.498 1181.79 32.5363 310.875 246.963 -780.988 1018.12
2486 1 -20.9498 -67.1123 -19.0524 1307.19 675.077 865.799 -99.5242 9.79937 -44.7177 -776.536 592.782
2410 2 -23.5659 -67.0103 -15.7376 -82.7695 -613.976 -605.938 -340.48 -131.995 -5.31031 -275.618 823.474
2316 2 -21.8092 -67.3174 -17.7259 -569.893 -523.782 -269.514 -3.94708 -88.7722 -27.1548 -264.902 323.115
4912 1 -19.3924 -67.3412 -14.6335 362.23 719.643 1193.48 385.411 84.4973 43.464 -737.564 997.16
2494 2 -21.9359 -67.3302 -20.3225 7.3268 -471.243 -296.458 -76.5752 591.62 -138.525 -267.139 1140.67
4904 2 -18.3512 -67.5775 -15.9464 -227.555 -491.273 -181.955 -395.599 148.738 51.0687 -310.4 792.049
4901 2 -20.8831 -67.4291 -15.2209 99.0467 -420.82 -460.088 -138.31 180.048 -201.428 -287.179 754.042
2400 2 -19.4052 -67.7977 -18.5157 202.672 -448.097 -182.179 -206.083 520.969 -110.87 -270.49 1140.03
4900 1 -18.0522 -67.6565 -17.6645 1139.99 886.41 1074.01 50.2064 -71.6462 370.48 -756.358 697.603
2506 2 -18.1985 -62.1493 -15.23 -422.566 -463.909 -527.23 78.8631 -96.5499 -52.2709 -272.387 251.311
333 2 -23.2058 -43.96 2.17897 -218.462 -526.812 -562.319 16.3729 20.0844 91.5265 -259.675 366.654
7394 1 -11.7667 -67.0301 -15.7163 695.539 186.215 1417.25 53.2903 -16.6778 319.067 -759.696 1209.39
7401 2 -13.5055 -65.1157 -19.0549 -60.2412 -421.127 -54.9705 -76.8139 514.816 -252.141 -266.985 1065.69
4908 2 -16.871 -63.9123 -16.6239 -521.5 -198.283 -569.56 63.3192 21.8333 158.809 -265.231 459.817
2498 1 -16.7988 -62.4145 -15.9397 851.246 835.608 925.387 -32.6819 -71.0448 -34.6018 -791.873 169.82
4997 2 -15.6061 -62.3295 -14.8985 -472.383 -473.612 -607.43 34.5737 88.8389 30.6156 -265.154 219.427
5002 2 -13.0742 -62.4482 -14.8523 -425.576 -360.605 -320.168 -40.0528 -223.995 91.0665 -267.282 434.393
4994 1 -11.8777 -62.6116 -15.8971 928.262 711.518 1385.15 -54.8644 9.79814 167.093 -796.285 669.199
5003 2 -14.1057 -63.1048 -20.6481 -376.96 -456.955 -640.073 122.319 -56.3816 -48.725 -280.182 340.771
7404 2 -12.132 -63.7643 -17.1346 -371.703 -193.727 -125.602 80.0142 93.0004 262.944 -267.487 548.647
4902 2 -15.9774 -64.1651 -19.0092 -360.094 -468.172 -540.163 114.387 -109.781 -212.474 -282.918 485.272
4899 1 -17.1699 -64.5591 -18.0403 527.955 874.622 846.727 -107.855 79.8136 52.9974 -782.418 416.798
7393 1 -14.7719 -64.4607 -19.9989 910.348 1013.46 947.318 -108.046 117.09 303.124 -759.37 599.992
7398 2 -11.0053 -65.1097 -19.1647 -529.089 -634.764 -496.112 -72.5284 -221.276 -142.117 -252.5 488.879
7395 1 -12.1944 -65.0635 -18.0811 811.911 825.718 960.93 -9.79613 10.5359 509.29 -802.166 893.918
4903 2 -17.4676 -66.1514 -17.9178 -407.002 -20.6764 -593.546 232.773 -96.407 -242.228 -277.895 789.03
7400 2 -11.9266 -66.2873 -17.0932 -536.815 -292.371 -726.177 -113.578 294.133 -280.165 -270.641 821.961
7402 2 -13.1782 -66.698 -15.0035 101.259 -415.588 -869.442 66.8306 -81.3498 41.9111 -276.261 863.834
7397 2 -15.8695 -67.5468 -14.6824 175.43 -447.259 -708.005 253.077 10.3961 -49.0965 -291.293 904.319
7493 2 -10.5196 -62.9656 -15.0558 -132.009 -419.855 -383.816 -31.4554 368.052 -74.0229 -263.478 706.806
2537 2 -20.9298 -61.9215 6.66076 -814.831 -562.848 -528.5 -70.0742 -75.1284 -20.3287 -232.142 325.936
2501 2 -20.7703 -61.6673 -14.8616 -420.102 -415.09 -663.376 -120.307 -9.59142 70.0971 -262.959 344.768
2 1 -22.3078 -61.4959 -15.1621 714.656 733.814 1090.03 45.502 155.563 -139.102 -814.649 520.518
1 1 -24.3061 -59.3566 -19.6879 737.581 813.211 865.856 31.3414 50.2238 224.89 -819.136 417.988
2497 1 -19.6523 -59.6 -18.9954 729.286 922.975 1043.2 141.157 -35.4062 -162.86 -805.846 467.295
8 2 -22.5724 -60.3664 -16.2692 -549.774 -482.207 -426.089 1.42512 -10.9789 -112.094 -251.726 222.641
2503 2 -20.0221 -60.8215 -19.9989 -630.277 -396.351 -455.045 -63.7203 -83.1392 79.0363 -264.136 309.99
7 2 -24.0239 -60.828 -20.4194 -428.213 -251.019 -362.68 -124.504 15.7951 184.921 -256.908 417.036
3 1 -22.2123 -59.1269 -17.2524 1013.2 842.78 813.129 59.4517 49.9403 -83.5553 -825.003 272.039
6 2 -20.7583 -59.3992 -17.8687 -421.811 -440.674 -480.64 -92.502 -127.696 34.0889 -264.609 284.222
9 2 -23.2632 -59.1498 -18.4848 -444.013 -551.409 -476.007 -17.4832 135.056 61.8174 -250.041 276.085
107 2 -24.0664 -58.2191 -20.7097 -546.348 -601.992 -736.897 42.9409 -142.899 -52.3116 -257.97 322.187
2603 2 -19.6056 -58.2188 -19.9528 -480.379 -150.536 -335.23 -57.1462 32.4144 -211.284 -264.264 478.394
12 2 -22.3086 -57.842 -16.3512 -625.882 -489.907 -405.937 -46.3189 17.9975 222.141 -250.86 438.641
2597 2 -20.5222 -57.2536 -14.5459 -85.6306 -442.908 -572.765 -72.8682 71.1068 141.174 -257.427 530.842
98 1 -22.0873 -56.9761 -14.9658 1133.33 734.386 954.388 112.125 55.1659 30.4713 -812.238 411.608
2596 1 -19.6876 -56.8231 -20.7099 918.88 919.726 937.657 8.81651 -48.3382 -20.1539 -808.08 93.8025
2500 1 -19.7342 -61.9774 -21.0373 834.681 785.942 543.088 -24.5758 -78.0948 113.026 -782.546 362.799
2505 2 -18.2248 -59.9575 -18.4625 -279.651 -476.072 -554.792 -77.121 54.1967 -40.2363 -263.768 302.906
2602 2 -17.935 -57.7165 -14.708 -321.82 -511.308 -443.398 -18.8042 -219.509 -49.94 -258.939 425.14
2512 1 -19.3603 -62.0415 -14.1664 724.573 789.096 1025.08 127.544 124.29 -226.55 -811.822 569.383
2828 2 -17.1708 -45.5924 4.43193 -507.473 -499.44 -360.685 36.6038 -1.04823 -144.457 -249.235 295.057
5319 1 -11.6111 -43.9576 2.87045 721.961 1128.19 830.326 -45.8458 198.392 -170.479 -819.069 586.784
5000 2 -11.669 -61.1901 -16.6319 -514.671 -252.911 -551.657 52.7883 4.28332 -81.6458 -266.949 328.604
2504 2 -16.4596 -61.3873 -17.1596 -524.411 -333.909 -426.557 104.004 -79.8173 -93.3932 -269.42 323.967
4993 1 -13.9862 -59.3143 -19.1331 864.199 748.606 882.767 -163.84 -81.7767 -71.8585 -802.054 363.231
4995 1 -11.8575 -59.629 -16.8529 1013.83 704.035 627.895 -131.717 67.0776 -140.142 -805.729 499.822
2499 1 -16.704 -59.9611 -17.8211 802.445 795.245 895.014 -72.9302 81.6518 47.0863 -805.759 227.808
2502 2 -15.561 -59.6173 -18.8518 -274.773 -508.969 -750.087 135.652 19.1233 1.47247 -261.076 475.144
4999 2 -13.5156 -60.5434 -20.0769 -561.62 -365.925 -499.171 117.458 -1.64959 131.921 -266.773 351.543
5001 2 -13.1568 -59.3611 -17.8196 -327.233 -493.823 -615.309 -17.944 44.2616 -156.222 -265.99 377.901
2508 2 -16.6695 -58.7823 -16.7487 -520.707 -249.743 -444.962 35.4495 102.313 193.397 -260.568 453.89
5004 2 -12.0711 -58.7365 -15.6172 -666.402 -315.223 -810.661 32.3155 34.1538 56.3099 -257.939 459.285
5099 2 -13.8842 -58.0109 -20.0744 -528.618 -337.022 -392.726 33.9215 20.0509 -166.813 -260.908 342.458
2594 1 -16.6309 -57.5631 -15.6414 893.327 884.604 1048.95 99.2926 -67.1252 -65.1188 -815.882 285.428
5090 1 -11.8768 -57.4166 -14.7016 638.367 863.579 1004.42 -67.6655 14.6466 -214.729 -816.76 504.954
5093 2 -15.3574 -57.4691 -14.6994 -366.882 -508.432 -352.096 98.6793 227.277 75.2855 -258.51 472.789
7589 2 -10.3706 -57.3733 -14.2732 -563.602 -641.277 -689.07 46.7406 -92.4779 121.417 -252.697 297.433
2600 2 -16.6288 -56.1811 -16.5069 -594.609 -289.715 -721.091 86.4678 -132.213 29.9575 -254.22 474.431
5096 2 -12.0894 -56.0505 -15.5575 -611.304 -27.8799 -565.377 132.764 -119.922 -20.468 -257.273 642.633
2826 2 -15.6537 -43.9881 2.94425 -496.369 -672.799 -562.348 28.4078 9.95051 -32.7093 -257.391 172.534
2782 2 -18.1731 -52.1872 -20.6489 -329.604 -454.861 -631.793 -111.874 7.05695 132.742 -255.419 399.643
196 1 -24.369 -52.2251 -20.6168 1004.96 763.213 1279.14 88.549 -34.7583 -39.0738 -821.54 481.274
2599 2 -20.2268 -55.6512 -19.7135 -563.302 -370.745 -491.044 -19.4347 51.1961 140.945 -256.173 311.413
103 2 -24.4517 -55.8488 -20.1175 -547.165 -750.033 -556.84 9.90644 232.513 0.164845 -259.849 449.186
104 2 -22.3243 -55.484 -15.3009 -511.139 -644.503 -346.617 24.1085 -17.1035 -178.312 -259.726 405.957
105 2 -23.1464 -55.0645 -17.8063 -373.753 -536.976 -237.451 -7.16281 241.148 121.622 -254.487 535.215
97 1 -24.3787 -54.8739 -18.8877 1009.33 878.217 808.021 158.654 61.6394 -251.736 -819.843 555.29
102 2 -20.6901 -54.8804 -17.2987 -544.408 -523.265 -577.84 -68.4515 -153.069 28.7782 -254.245 298.501
2593 1 -19.7095 -54.7172 -18.5434 928.478 750.794 890.342 10.0083 82.3012 -179.455 -828.051 378.791
99 1 -22.1183 -54.5939 -16.6592 842.202 750.994 1064.83 74.379 0.612093 61.1009 -818.134 325.555
203 2 -24.2247 -53.4241 -19.5341 -485.792 -402.865 -397.491 -18.7924 -79.835 -182.709 -258.801 357.322
2699 2 -19.8074 -53.1969 -19.036 -623.752 -305.156 -600.377 -20.8886 47.4329 -88.691 -248.145 355.33
108 2 -22.3188 -53.0915 -16.2094 -455.253 -391.618 -565.591 -28.2766 -3.36486 193.779 -257.708 371.926
2692 1 -19.703 -51.995 -20.1083 1102.01 838.064 982.546 -184.488 16.8286 19.5774 -820.689 395.618
194 1 -22.1574 -51.6238 -15.5383 783.436 810.733 1082.98 39.7 108.886 56.243 -826.128 363.432
2693 2 -20.6777 -51.5829 -14.8838 -419.059 -489.446 -611.379 -34.7019 75.0489 9.78708 -250.167 221.814
2704 1 -19.2088 -51.91 -14.3802 679.406 901.009 976.8 -75.9826 86.5893 -74.1917 -833.89 357.734
2698 2 -18.1936 -51.7045 -15.5754 -533.846 -611.729 -610.808 117.144 -72.997 -43.1901 -245.59 262.193
2601 2 -18.1973 -55.0576 -18.1245 -236.211 -496.048 -543.195 110.208 187.416 107.702 -248.605 508.527
202 2 -23.2853 -51.4644 -14.4223 -486.181 -539.029 -494.91 -10.3168 -106.693 30.7958 -257.08 199.305
199 2 -24.1037 -50.7747 -20.0084 -488.34 -289.416 -632.881 -8.4933 10.8338 69.2611 -254.385 322.762
2695 2 -20.0552 -50.5653 -19.475 -383.157 -238.195 -391.504 12.612 -44.3364 227.531 -258.777 428.928
200 2 -22.2733 -50.4605 -16.6081 -523.844 -588.613 -570.164 8.01986 -17.0586 -83.3933 -254.156 158.964
5323 2 -14.8619 -45.3916 0.974992 -467.989 -463.048 -525.373 -44.4894 -35.0156 58.0436 -259.206 152.723
5095 2 -13.7799 -55.4129 -20.187 -603.607 -648.174 -517.93 -18.108 23.1468 66.2197 -255.53 169.974
2598 2 -15.5679 -54.861 -18.4223 -401.453 -471.52 -609.46 54.6339 -33.9476 82.5421 -256.118 257.786
5097 2 -13.0435 -54.9658 -17.6316 -267.145 -471.097 -319.737 -16.0755 237.715 14.2819 -250.962 452.271
2595 1 -16.749 -54.885 -17.3518 769.302 707.455 1133.21 -57.3915 69.1429 112.871 -826.42 470.325
5091 1 -11.9879 -54.6919 -16.4262 998.684 839.866 880.709 -47.9684 -13.4503 -54.4535 -817.868 191.692
5089 1 -14.0626 -54.5565 -18.8887 1045.1 704.358 1000.37 -64.9069 111.306 -274.302 -814.424 615.14
2604 2 -16.7504 -53.4567 -16.6023 -477.633 -218.621 -611.339 136.469 74.6544 52.6645 -257.702 447.781
5100 2 -12.4316 -53.3036 -15.8043 -480.776 -143.361 -615.03 9.35308 35.9282 -0.513381 -257.782 425.803
5195 2 -13.8561 -53.084 -19.4782 -530.064 -454.708 -473.167 38.2382 -15.4514 -278.87 -257.267 492.986
5186 1 -12.0962 -51.7395 -15.3245 648.575 904.647 998.701 4.83133 104.48 -3.28779 -811.31 362.428
2690 1 -16.703 -51.9188 -16.1405 813.194 774.266 1004.66 40.9138 -5.59064 -38.395 -824.384 234.873
5189 2 -15.7522 -51.6573 -14.9029 -420.372 -541.544 -350.3 -37.4148 143.85 64.7352 -254.812 327.007
5094 2 -10.5534 -54.5304 -17.1413 -378.852 -484.408 -359.822 59.4545 -192.812 20.8871 -263.447 370.075
7685 2 -10.5967 -51.7938 -14.8046 -253.305 -496.245 -548.14 -48.8591 68.7222 34.1261 -266.058 314.871
2696 2 -16.4459 -50.8758 -17.3268 -509.187 -166.511 -599.802 -66.374 61.2493 -66.7525 -257.06 441.054
5191 2 -13.6769 -50.5145 -20.206 -538.957 -312.366 -510.789 42.8573 81.6935 140.691 -257.545 361.48
5192 2 -12.2645 -50.6952 -16.5156 -507.048 -372.473 -495.947 -28.3022 92.698 -143.308 -260.492 326.395
5194 2 -13.2117 -51.4671 -14.2581 -316.483 -536.494 -629.81 136.351 -65.6915 -73.0301 -259.648 402.945
4955 2 -18.0105 -68.3456 6.008 -169.48 -534.277 -465.889 -95.0703 -284.264 80.2524 -200.603 633.767
299 2 -24.0519 -48.3069 -20.8877 -540.644 -505.435 -746.179 -77.8424 142.017 8.48295 -249.883 360.03
2689 1 -19.6155 -49.0965 -18.8516 707.647 923.96 995.928 36.7169 22.6089 90.6371 -827.843 312.668
198 2 -20.6771 -48.6936 -17.7205 -225.85 -522.834 -657.809 4.60965 -79.4778 57.1525 -246.485 418.708
193 1 -24.2624 -49.2057 -19.665 901.156 828.216 790.094 -59.1064 60.5725 214.78 -829.405 411.623
201 2 -23.2164 -48.8337 -18.4828 -262.359 -566.485 -351.555 11.863 187.812 16.3915 -250.318 424.7
195 1 -22.1944 -49.0115 -17.2238 999.515 856.079 902.413 39.6234 93.2421 -103.363 -835.183 280.925
204 2 -22.4869 -48.0109 -16.0325 -698.045 -465.102 -580.115 21.0362 26.3412 103.212 -242.556 275.8
2795 2 -19.7541 -48.0056 -19.9724 -614.453 -445.055 -543.505 -30.2503 81.1031 -55.5931 -245.462 231.216
290 1 -22.2359 -46.9427 -14.8521 636.098 1096.13 796.709 -67.0117 166.646 -28.0381 -835.384 512.523
295 2 -24.332 -45.7726 -20.4397 -529.063 -352.303 -218.239 17.052 62.582 231.691 -252.191 496.566
2791 2 -19.9275 -45.4463 -19.8509 -569.634 -571.328 -367.655 20.2954 15.0874 151.766 -248.499 334.9
296 2 -22.4308 -45.4336 -15.4145 -506.231 -361.926 -435.778 36.7947 -19.5671 -115.161 -249.388 246.206
294 2 -20.7352 -44.8884 -17.3647 -403.133 -616.359 -451.437 34.7047 -158.677 22.8913 -250.974 343.831
297 2 -23.2388 -45.0383 -17.8976 -490.209 -567.077 -95.0982 25.9818 249.201 88.3644 -243.32 635.724
291 1 -22.183 -44.5787 -16.7575 936.867 626.589 978.209 5.75574 53.2718 -21.0564 -835.92 347.494
2785 1 -19.691 -44.5497 -18.5364 972.953 818.994 1090.01 6.65773 81.2659 -80.4508 -830.415 307.883
289 1 -24.2876 -44.7814 -19.1579 1019.93 999.914 1207.16 73.4489 19.5479 -43.9521 -837.599 249.659
2793 2 -18.1164 -44.6582 -18.0859 -61.9525 -506.657 -605.267 101.304 42.1507 94.1179 -250.093 560.384
2789 2 -20.704 -47.1433 -14.4804 -485.483 -630.672 -683.04 -82.7703 -133.886 26.1654 -249.495 328.342
2697 2 -18.1135 -49.1418 -18.3649 -300.727 -510.608 -513.126 122.525 163.603 94.0197 -261.142 443.215
2794 2 -18.0619 -47.4274 -15.1642 -397.428 -575.851 -496.547 -49.612 -147.492 59.3674 -251.826 327.405
2691 1 -16.5916 -49.3403 -17.8403 848.996 972.189 1075.99 -40.5921 83.4887 17.9683 -813.758 256.05
2694 2 -15.5779 -49.2201 -19.0821 -117.284 -536.792 -424.14 70.1204 -138.045 32.6316 -253.537 465.331
5187 1 -12.0229 -49.2326 -17.1442 884.858 925.721 802.154 -8.41477 -165.009 -0.71622 -817.334 306.247
5185 1 -13.9786 -49.0925 -19.5672 1194.23 625.761 801.49 89.6371 -130.098 119.07 -814.028 609.55
5286 2 -10.5629 -44.5692 -17.3635 -458.782 -550.379 -533.575 9.86091 -148.238 33.5367 -247.287 276.989
5193 2 -13.03 -48.8534 -18.2943 -447.312 -525.571 -486.582 -4.95673 114.467 -3.89585 -263.361 209.811
5196 2 -12.1026 -48.2205 -15.8887 -529.974 -329.631 -316.178 -16.6806 24.6925 219.019 -257.398 435.414
2700 2 -16.1565 -48.3124 -16.6593 -486.002 -325.192 -334.363 60.6559 96.9758 193.047 -261.923 418.953
2786 1 -16.5999 -47.1455 -15.6479 796.097 1073.27 772.768 -14.0701 -7.97218 -189.393 -821.661 438.442
5282 1 -11.9688 -46.9871 -14.8285 929.659 1055.64 1121.05 5.59759 -41.3439 -43.4468 -816.12 198.181
2792 2 -16.5173 -45.707 -16.4587 -569.822 -231.17 -554.871 76.6419 -66.4689 -107.605 -251.284 418.878
5288 2 -12.2286 -45.5977 -15.6649 -518.688 -359.563 -510.371 -44.6256 106.545 -82.1025 -262.433 290.377
5287 2 -13.73 -45.4446 -20.6634 -533.515 -487.399 -311.275 -19.8938 -3.10783 130.875 -257.259 306.382
5289 2 -12.9434 -44.806 -18.1622 -500.688 -579.269 -97.2037 77.3821 197.465 177.815 -248.534 656.107
2790 2 -15.461 -44.8258 -18.6901 -265.326 -406.907 -230.36 -110.357 -300.226 123.846 -256.527 615.772
2787 1 -16.6132 -44.5235 -17.5 940.962 757.099 1173.29 5.55316 -78.3418 84.0148 -824.759 412.526
5283 1 -12.0673 -44.5065 -16.7478 942.971 809.65 1111.58 -65.9952 28.7655 204.18 -817.124 457.491
5281 1 -14.0079 -44.5481 -19.3184 1102.52 811.528 823.394 37.1253 -99.6572 16.8599 -820.329 340.801
5285 2 -15.6479 -47.0591 -14.3705 -488.3 -584.599 -528.288 -12.5435 32.2249 106.927 -258.481 211.919
5291 2 -13.7673 -48.0016 -20.6649 -623.404 -692.805 -538.357 -3.97365 7.23451 33.0604 -256.534 146.407
7781 2 -10.4488 -46.9834 -14.3021 23.3755 -547.844 -600.895 -91.9416 24.8316 -14.0716 -253.312 622.265
5190 2 -10.5518 -49.1419 -17.8095 -306.123 -493.419 -524.211 72.2941 -124.131 -30.8279 -257.121 326.421
4913 2 -20.8702 -67.7918 -7.53267 -135.067 -626.6 -316.915 220.079 215.721 -36.0861 -231.604 688.554
4915 2 -19.2492 -66.0223 -13.7428 -466.775 -372.964 -146.033 36.9193 -105.492 343.606 -280.815 687.937
2424 2 -21.7322 -63.9705 -9.51652 -635.591 -431.517 -491.101 -38.9476 79.3872 139.905 -247.97 339.433
14 1 -21.9775 -62.8345 -8.37932 1057.2 1090.56 939.139 212.882 227.382 -123.468 -851.981 596.478
22 2 -23.4038 -63.2494 -7.77279 -428.02 -543.986 -428.441 8.57741 -265.738 -43.1348 -238.953 480.678
23 2 -24.4528 -63.4611 -13.058 -526.777 -44.8584 -560.084 -124.076 -14.6352 -20.6383 -251.109 545.446
2519 2 -19.5492 -63.451 -13.378 -574.362 -250.211 -573.807 -16 9.86792 -46.7649 -254.377 335.433
2413 1 -24.5654 -64.9134 -12.344 917.506 1000.23 1090.4 100.085 23.4613 -158.616 -821.742 360.017
4909 1 -19.3483 -64.8499 -12.6078 979.594 847.437 782.971 -124.099 38.4868 -54.3526 -807.323 299.415
2415 1 -21.847 -65.108 -10.618 1009.44 1127.62 653.661 179.343 158.712 -88.2889 -823.882 614.845
2421 2 -23.2281 -65.141 -11.4742 -369.633 -566.235 -273.622 37.0829 260.441 151.83 -252.715 586.103
2418 2 -20.643 -64.9052 -11.6626 -398.705 -581.034 -386.803 -87.837 -182.426 110.073 -257.385 441.46
2419 2 -24.837 -65.9619 -13.5759 -390.684 -539.065 -147.186 -53.1092 -2.00001 168.818 -276.886 459.795
2328 2 -21.7985 -66.4441 -9.67527 -625.178 -538.629 -91.9161 36.7249 -53.3987 -205.327 -249.582 620.31
2414 1 -21.8871 -66.7094 -8.09865 735.227 1202.14 924.851 -66.5496 -102.348 300.241 -811.856 693.235
2422 2 -23.4787 -66.7622 -7.75962 165.839 -408.35 -905.715 24.6211 -73.6196 -73.0949 -246.684 946.97
2428 1 -25.0176 -66.8136 -7.24343 770.303 1130.17 948.312 129.544 122.258 70.3575 -822.827 455.158
2420 2 -21.0156 -65.6805 -7.10623 -260.026 -1099.26 -450.234 204.979 44.5002 117.021 -235.606 868.296
4917 2 -18.0509 -64.7087 -11.6927 -590.534 -519.306 -330.129 125.491 30.1203 206.415 -259.361 481.791
4918 2 -18.3701 -66.5643 -7.19372 -252.206 -478.57 -701.888 95.9984 -82.5739 16.4782 -265.114 447.861
7408 1 -14.3862 -67.3515 -14.1061 557.557 795.927 1381.83 5.27987 131.439 -342.217 -767.694 971.086
5008 1 -14.395 -62.4741 -13.8801 832.207 727.057 1018.04 -21.1036 -142.673 19.7346 -810.989 358.749
7414 2 -13.3423 -66.4666 -7.76102 57.6286 -421.405 -728.702 47.5672 -78.116 16.4834 -262.281 704.996
4910 1 -17.0797 -66.4033 -7.99973 270.523 1185.48 867.232 -27.1221 119.244 75.5548 -806.284 842.158
7411 2 -14.4571 -66.512 -12.7373 -483.127 -6.80615 -290.856 -24.2605 -28.554 459.108 -270.282 899.344
4916 2 -15.9123 -65.3691 -7.52812 -120.262 -932.396 -562.043 -66.4282 11.7983 -9.13215 -236.228 714.039
4914 2 -15.6431 -64.7806 -10.9309 -367.12 -541.083 -421.066 -77.1196 -235.979 95.476 -255.231 485.836
7405 1 -14.3942 -65.0425 -11.9582 1056.33 1135.97 1089.33 -94.6382 15.6433 -165.916 -800.814 339.103
5015 2 -14.5132 -63.8529 -13.1129 -510.973 -219.388 -479.599 46.8734 3.18866 -152.348 -261.306 391.293
7416 2 -11.4866 -63.6695 -9.42035 -626.86 -469.996 -474.892 62.6026 -13.2747 193.537 -249.407 385.381
5014 2 -13.3592 -63.0208 -7.72883 -399.225 -573.102 -666.517 164.273 -31.5066 28.6103 -243.182 376.288
5006 1 -11.8257 -62.6337 -8.22789 1131.37 1207.62 976.299 29.176 89.7911 -221.285 -836.846 464.035
2510 1 -17.191 -62.543 -7.96769 976.605 1189.9 945.841 -172.492 134.268 -22.1074 -840.909 444.761
4920 2 -17.2395 -63.4457 -9.38359 -623.202 -424.616 -131.678 123.017 54.8107 271.4 -247.578 677.355
4911 1 -17.1272 -64.696 -10.3805 874.739 975.248 550.921 36.2719 137.371 96.6678 -827.404 485.902
7407 1 -11.5365 -64.9129 -10.4177 990.947 1152.7 702.358 -92.7061 -21.3375 -63.8329 -825.206 442.157
7413 2 -12.9243 -64.8626 -11.2506 -56.1537 -561.103 -371.394 120.365 214.193 106.387 -258.783 640.486
5009 2 -15.7722 -62.3645 -7.31311 -501.323 -727.234 -382.023 162.727 146.225 113.876 -242.708 524.126
4824 2 -17.458 -65.9562 -9.51749 -602.387 -681.155 -367.383 -121.365 2.8016 -71.0924 -251.85 373.251
7320 2 -11.5214 -66.2999 -9.59996 -622.614 -439.937 -347.063 69.4202 -33.5941 -121.273 -247.379 347.745
7406 1 -11.7651 -66.5255 -8.02605 633.697 1196.71 1095.42 -200.171 -187.616 71.3319 -817.311 715.041
7409 2 -15.9705 -67.5195 -7.7441 -66.2667 -751.027 -397.522 117.329 175.674 26.8858 -232.382 698.461
9905 2 -10.7715 -67.6556 -7.31136 94.5619 -599.691 -446.56 10.1138 461.709 33.7222 -218.517 1020.96
340 1 -24.4379 -47.1214 6.77377 863.991 1119.06 991.192 11.7006 45.1974 -22.4398 -839.692 238.42
7412 2 -10.802 -65.4762 -7.26787 77.7305 -925.77 -608.151 -72.9373 229.038 -0.724597 -226.16 981.071
7420 1 -14.801 -66.5139 -7.08993 601.447 1280.6 918.989 2.39711 -15.3169 -205.75 -811.255 688.584
10 2 -23.2502 -61.34 -13.8843 -56.5241 -583.16 -507.225 38.9737 -257.233 34.3916 -253.981 670.621
106 2 -23.2092 -57.6157 -13.969 -196.319 -427.631 -502.073 102.729 -253.017 4.87822 -256.083 547.768
16 1 -24.7613 -61.8789 -13.437 1192.66 965.758 826.143 -29.3065 97.9756 -245.5 -819.761 561.109
20 2 -21.8683 -61.3661 -9.03875 -698.997 -320.871 -579.481 84.3269 -210.213 23.2437 -242.834 517.294
21 2 -23.5879 -60.3069 -10.4609 -288.176 -529.808 -555.601 -62.4459 -55.5226 82.7459 -246.68 326.759
15 1 -22.0463 -60.1956 -10.0859 922.137 577.368 925.278 50.2016 79.9338 -74.3257 -841.254 404.054
2509 1 -19.549 -59.8907 -11.8911 934.518 898.361 926.639 12.6907 20.5456 -111.328 -826.056 200.04
13 1 -25.0358 -59.9074 -11.1518 937.983 1046.15 859.449 40.4236 267.243 -275.954 -826.142 688.458
2517 2 -18.5138 -60.0364 -10.6933 -567.188 -588.751 -596.532 -145.836 34.7441 -3.20734 -247.66 261.056
18 2 -20.9636 -60.3425 -11.2671 -363.281 -520.013 -510.302 42.0156 -249.598 -19.7736 -249.767 465.3
2515 2 -19.0793 -60.8891 -13.1063 -512.215 -429.648 -446.481 -92.0609 -120.535 206.102 -252.63 449.619
24 2 -21.7914 -58.7443 -9.55232 -672.746 -757.095 -604.625 -44.7668 -101.666 -52.7655 -249.554 250.747
2615 2 -19.5035 -58.458 -12.5921 -477.975 -376.783 -515.102 119.18 -176.223 -114.76 -258.205 436.646
119 2 -24.7753 -58.5368 -12.0265 -492.224 -284.101 -360.448 66.9067 -85.7311 -169.2 -256.36 393.216
2608 1 -19.1416 -57.3574 -13.7064 894.19 798.538 1172.74 211.614 133.111 -52.0708 -818.411 555.888
112 1 -24.6452 -57.4905 -13.2234 903.163 906.228 986.651 -175.725 5.34814 26.2351 -827.577 318.61
110 1 -21.9264 -57.2334 -9.16942 1151.42 735.069 681.942 -147.971 222.605 -56.2494 -831.343 649.711
124 1 -24.5848 -57.0902 -7.65002 826.4 1252.05 877.769 97.4182 248.166 -196.853 -836.028 701.021
118 2 -23.4803 -56.9131 -8.75777 -318.222 -607.353 -500.291 -34.1107 -37.6104 75.1832 -250.091 297.987
2609 2 -20.8509 -57.0349 -7.97795 -485.955 -683.218 -370.84 -35.0268 43.3731 -40.6482 -246.466 298.585
2614 2 -18.3922 -56.8195 -7.63936 -588.647 -609.192 -527.835 -1.79679 -102.614 76.5878 -241.109 233.593
131 2 -24.6129 -58.6307 -7.10029 -601.395 -35.2232 -383.312 -7.22048 -56.3769 -193.183 -244.027 605.218
116 2 -21.6538 -56.226 -10.3387 -717.042 -543.457 -505.868 50.1007 23.0242 48.0281 -252.007 232.616
5011 2 -14.4494 -61.2996 -12.7659 -472.569 -208.641 -272.081 -64.3709 -122.482 272.658 -256.973 580.863
2516 2 -17.5543 -61.0172 -8.47603 -599.872 -164.144 -282.902 102.739 -196.521 -195.228 -241.221 643.495
5012 2 -11.7234 -61.2059 -9.01551 -480.518 -560.827 -266.069 115.601 -101.417 -234.184 -246.317 552.389
2514 2 -15.9091 -60.3383 -10.6053 -248.008 -639.55 -291.321 40.8203 -251.293 126.676 -251.893 617.094
5013 2 -13.2746 -60.113 -10.8437 -377.876 -476.662 -653.617 -33.4264 57.6651 -38.3219 -255.013 276.2
2511 1 -17.2475 -60.0214 -9.74457 1043.75 1043.87 985.882 67.2669 -163.943 -153.331 -838.405 409.992
5007 1 -11.7856 -60.1655 -10.2366 863.553 876.749 1253.92 -17.6789 -39.7029 -5.542 -828.862 391.37
5005 1 -14.6534 -60.1182 -11.6119 855.052 869.22 1007.87 -169.587 -121.692 73.034 -824.89 409.997
5010 2 -10.6838 -60.2909 -11.4114 -222.458 -450.371 -417.128 77.1826 -147.542 -53.9627 -261.599 370.656
5111 2 -14.9614 -58.7376 -12.3157 -527.213 -293.785 -453.761 108.923 47.4329 -67.1398 -258.929 314.012
5016 2 -11.5267 -58.6837 -9.5333 -520.407 -192.515 -525.777 31.1869 36.065 258.009 -244.822 561.987
2520 2 -17.1229 -58.4538 -9.28558 -574.68 -255.017 -524.293 -76.9967 -44.2608 145.76 -240.934 419.543
5098 2 -12.9856 -57.5319 -13.5731 -356.901 -485.714 -658.851 72.3107 -65.1772 5.24274 -265.14 312.065
5104 1 -14.5375 -57.4665 -13.2579 919.646 804.814 1257.61 -197.042 -7.76407 -156.652 -806.918 597.071
2606 1 -17.1666 -56.9786 -8.62578 861.836 850.484 949.36 -39.4929 72.6549 87.5515 -850.299 228.679
5102 1 -11.7195 -57.1214 -9.2575 1019.28 999.018 872.712 -83.3877 -10.5604 -70.2676 -839.21 234.372
5110 2 -13.2161 -56.8175 -8.70375 -358.298 -596.557 -302.736 -21.9964 -214.955 94.1571 -243.523 489.65
5105 2 -15.7355 -56.7173 -7.93242 -264.454 -534.728 -561.829 8.13787 108.114 8.5733 -243.781 341.456
5116 1 -14.2188 -57.0021 -7.43446 1012.72 1207.02 1020.51 -76.0731 119.928 -74.0644 -839.315 336.554
7601 2 -10.6684 -56.5776 -8.16944 -378.531 -584.578 -439.04 60.9251 170.739 48.17 -238.098 373.096
2711 2 -19.0887 -53.38 -13.767 -508.507 -420.63 -589.88 31.9591 -7.8302 -41.7897 -253.272 173.153
2611 2 -18.7273 -55.905 -13.0859 -469.001 -303.686 -598.904 75.4469 22.8891 98.3387 -254.435 336.659
115 2 -24.911 -55.9505 -12.76 -534.153 -354.797 -632.979 -144.312 -85.5948 -27.5561 -252.003 382.617
208 1 -24.6793 -51.8017 -13.7614 970.275 992.659 890.071 28.8539 124.426 -97.7945 -829.481 293.877
111 1 -21.7435 -54.7653 -10.9556 721.476 972.84 852.78 -74.2483 35.0548 36.8308 -833.921 267.795
109 1 -24.6971 -54.5282 -12.1323 1024.3 736.661 1111.26 69.4094 20.1511 -92.9972 -835.416 396.139
2605 1 -19.1015 -54.4496 -12.5849 805.35 720.531 893.567 -117.354 51.2919 -75.6654 -832.791 298.066
114 2 -20.52 -54.4727 -11.9043 -663.017 -551.687 -571.7 20.3006 -3.56506 71.3741 -255.799 164.694
117 2 -23.1589 -54.5451 -11.58 -339.616 -593.362 -681.127 -74.8843 -129.487 41.5425 -247.416 408.241
120 2 -21.7212 -53.642 -9.72621 -725.38 -332.64 -463.804 31.4332 32.9931 195.033 -237.936 490.182
215 2 -24.7615 -53.2669 -13.1192 -580.101 -304.381 -527.046 77.6407 -64.1454 -57.901 -251.584 323.564
214 2 -23.2792 -52.5889 -8.08548 -171.317 -605.626 -410.148 101.285 -211.956 -75.4729 -235.056 569.718
206 1 -21.7699 -52.4138 -8.74423 1194.39 1004.13 827.987 164.966 99.0871 -252.861 -841.17 635.333
212 2 -21.6416 -51.0298 -9.58782 -539.925 -317.024 -427.4 -38.4302 -22.1182 -62.8806 -252.154 234.574
2707 2 -18.9067 -50.8403 -13.212 -606.48 -445.651 -522.77 52.3947 -14.8458 123.343 -249.608 271.934
211 2 -25.0564 -50.7123 -12.6184 -547.659 -377.958 -463.519 -56.6753 -27.3923 150.144 -249.207 317.988
2705 2 -20.6978 -52.5091 -7.52152 -289.938 -561.81 -164.071 -66.0214 145.54 42.7444 -252.964 453.961
2613 2 -18.0469 -54.0039 -11.4616 -351.115 -595.505 -268.672 4.88976 191.586 35.3882 -245.737 447.902
213 2 -23.3409 -49.6673 -10.9728 -534.115 -616.457 -531.954 -9.83766 -19.4609 42.4683 -252.111 117.474
220 1 -24.4154 -52.3259 -6.93599 1066.43 643.386 958.62 -4.44939 46.0984 -8.33106 -843.888 389.389