ITEM: TIMESTEP
1460000
ITEM: NUMBER OF ATOMS
29952
ITEM: BOX BOUNDS pp pp pp
-2.5215326849417927e+01 3.5200621184295613e+01
-1.0777169375374395e+02 1.1775698809574395e+02
-2.0972667834995136e+01 3.4840520979710341e+01
ITEM: ATOMS id type x y z v_StrAtomXX v_StrAtomYY v_StrAtomZZ v_StrAtomXY v_StrAtomXZ v_StrAtomYZ c_PEAtom v_VMS
27158 1 -23.7565 -89.4959 -19.9908 385.928 -162.164 453.85 -63.5691 -27.3609 -33.8071 -418.328 600.036
2506 2 -20.1684 -89.859 -20.6237 -189.243 76.8831 -205.414 -37.9755 -55.8904 5.79261 -47.3047 298.641
9982 2 -22.682 -90.2143 -20.8024 -227.731 133.935 -263.872 36.283 -46.5235 23.6733 -47.1226 396.615
115 2 -13.6834 -89.582 -15.2725 -64.2345 146.111 -279.196 -61.812 -76.0599 23.7148 -72.7677 407.645
2238 2 -8.33701 -91.1322 -16.6376 -236.223 327.367 -361.606 -25.9624 -10.2107 35.2373 -89.8208 640.374
14403 1 -8.09754 -91.0467 -15.0433 435.056 -609.876 801.791 73.5599 168.865 32.1842 -340.707 1309.38
4491 1 -7.87965 -89.7053 -17.2685 416.185 -403.405 507.37 155.224 46.8975 72.1723 -336.756 921.566
2181 2 -11.3872 -89.2182 -20.4469 -196.505 146.749 -215.951 -64.0321 92.1637 -10.11 -66.1258 403.691
22001 2 -4.44176 -91.2422 -16.1969 -276.193 300.272 -341.909 -132.224 -97.8695 19.0637 -87.2245 675.861
9425 2 -1.95443 -90.9622 -17.4156 -68.0673 222.398 -219.604 -93.5312 -245.988 -15.3653 -55.9902 599.86
9722 1 -3.23614 -90.3414 -16.8486 275.417 -379.727 462.418 147.559 387.983 77.0818 -384.008 1058.98
6733 1 -5.15034 -91.2693 -14.7697 558.911 -659.709 845.416 225.84 41.466 38.7169 -342.335 1441.85
9226 2 -4.02866 -89.4906 -17.9662 -198.769 171.807 -140.333 -22.4515 -252.877 -93.5302 -79.3293 581.965
7030 2 -2.95158 -89.4537 -15.4183 -70.3357 156.063 -327.067 -20.2368 -97.7341 -35.3405 -83.7969 457.08
14659 2 3.75313 -90.6543 -20.4253 -442.228 308.646 -126.811 14.9175 139.918 -49.5436 -85.0935 702.299
14788 1 4.54886 -89.6135 -19.3855 741.624 -418.268 219.919 -46.9308 -330.049 139.293 -357.909 1184.91
12190 2 5.42877 -89.794 -18.0077 -355.672 214.813 -130.897 50.6072 170.919 -68.2495 -83.1629 597.531
24691 2 7.922 -89.2202 -17.8737 -149.183 226.141 -151.494 81.6584 104.492 -32.2464 -77.043 444.545
27352 1 16.6315 -90.6813 -18.5056 423.684 -561.239 775.699 -8.18261 -67.4354 -4.60039 -381.632 1206.07
29483 2 15.1057 -90.4509 -18.1003 -153.338 281.869 -353.85 -6.95046 26.5221 -0.553431 -71.69 564.916
24561 2 17.5796 -91.3035 -17.2875 -309.302 322.449 -379.375 17.0669 30.1324 -17.8246 -71.0725 672.934
12203 2 17.6021 -91.083 -19.6605 -294.66 308.315 -407.498 0.157291 50.2955 20.3553 -72.6259 673.188
14324 2 19.8119 -90.9708 -18.2916 -238.584 303.623 -443.012 -11.5412 41.0597 -3.37598 -68.3633 672.394
24554 1 18.9806 -90.6878 -16.9795 558.801 -546.535 711.024 5.51291 -88.8741 -27.7584 -390.302 1199.71
27166 2 19.4523 -90.668 -15.3303 -287.143 287.595 -301.107 -12.0708 36.2622 -4.468 -62.1763 585.65
14979 1 19.2371 -90.6186 -19.7914 502.065 -607.974 798.973 -17.58 -14.7225 9.40134 -393.101 1285.21
29760 2 35.0979 -90.0042 -19.9823 -219.776 176.797 -292.855 38.158 49.8503 12.9545 -54.0396 451.574
29564 2 -23.2604 -88.8348 -18.5775 -174.354 11.3616 -111.355 28.3296 40.4945 30.4929 -67.5776 192.031
29595 1 -19.7612 -88.3334 -20.4916 243.234 91.6769 191.983 46.3715 100.567 -54.948 -414.269 252.347
9397 1 -23.112 -87.3797 -17.8841 188.569 163.687 16.0619 -59.4368 -63.3616 15.9835 -376.305 222.473
24846 2 -21.1929 -87.4916 -20.5849 -116.353 -39.7799 -82.2946 -1.58178 -48.8892 -0.900376 -67.1854 107.684
1999 2 -21.7524 -87.0938 -16.9947 -69.4439 -80.6518 -24.6323 26.7232 -3.16377 -41.8835 -84.8479 100.355
22195 2 -24.3483 -87.1595 -16.7787 -49.431 -94.4468 -34.9629 -9.20517 69.0805 12.7033 -85.1691 133.947
4705 1 -21.4015 -87.0546 -15.4569 51.9068 83.966 272.462 8.57491 39.3573 93.5748 -345.622 271.547
24862 2 -23.117 -86.3901 -19.1899 -85.011 -21.5919 -29.3169 31.0953 30.7959 -79.6247 -75.6472 168.398
2392 1 -22.2655 -86.3312 -20.6374 199.316 -6.7569 133.221 -7.8186 -6.99941 139.027 -391.695 302.539
2417 2 -21.4335 -84.9295 -20.6037 -90.0964 16.7156 -58.3673 6.47978 15.0715 -74.5021 -73.476 162.744
29762 1 -19.7349 -83.7418 -17.6316 130.905 -69.7469 124.997 46.5739 66.3898 263.604 -373.587 517.013
29581 1 -21.6889 -83.475 -20.0342 154.839 -80.6004 150.574 -15.7995 -74.521 162.894 -381.334 389.176
29766 2 -21.0703 -83.6092 -18.563 -104.957 57.9794 -44.4797 -4.8606 2.45886 -117.181 -79.1479 248.264
4724 2 -19.2472 -87.6669 -19.0922 -66.4651 -68.1672 -66.6522 -22.7417 -32.2712 8.46425 -66.6279 69.9528
27175 2 -19.9804 -86.7267 -14.6187 31.0562 -18.9995 -168.872 1.4661 -26.035 -40.8577 -94.4399 198.79
22398 2 -20.1215 -83.3556 -16.1017 -56.632 44.6245 -48.895 -32.5038 -63.5689 -105.801 -83.0674 241.668
7277 2 -19.1812 -85.2751 -17.7579 -22.8198 -18.1251 -82.8612 -5.31083 -26.2602 -105.071 -80.0183 197.944
4915 2 -22.4965 -86.0531 -14.8904 -40.9805 37.6564 -138.981 -12.8572 -20.295 3.21307 -98.8732 158.924
2338 2 -24.3838 -88.2355 -20.8192 -133.054 -0.708636 -177.205 3.86805 38.2816 -30.9368 -65.7858 180.611
14593 1 -13.676 -88.7981 -16.7165 135.872 -170.611 467.335 177.727 97.8672 -17.9198 -379.919 655.626
12108 2 -14.9478 -88.3239 -17.7251 -44.7614 46.1066 -205.191 -90.0778 -42.2115 6.39942 -72.3689 279.969
4793 2 -18.6776 -87.515 -16.5046 20.9936 -62.336 -134.215 -8.41051 -75.7615 -47.8714 -78.9486 205.929
7105 1 -15.4333 -87.0342 -18.6454 34.5459 50.515 207.877 169.515 63.5723 49.293 -386.331 364.897
7595 2 -15.4892 -86.8007 -20.3044 -88.2505 -30.0123 -47.6361 -54.236 14.7856 -35.0722 -69.8339 125.883
4623 1 -18.6014 -86.805 -17.9631 -9.22674 148.802 150.017 26.9263 94.1882 74.9415 -385.15 266.091
4783 2 -16.9725 -86.7346 -18.2594 32.8204 -65.1541 -105.201 -39.5252 -42.8122 -29.7059 -73.4096 167.209
4603 2 -14.4226 -85.862 -18.2324 -71.9401 0.958292 -78.1375 -98.4833 -42.0555 -46.518 -81.7303 216.1
14608 1 -13.2804 -85.8467 -15.5104 -10.1335 -95.3856 290.365 220.253 98.0318 -33.8826 -356.472 548.63
27147 1 -13.5189 -84.5482 -18.0095 152.4 -76.8737 87.3174 164.604 107.515 135.789 -370.376 461.691
5003 2 -16.3432 -83.5667 -15.9935 13.5576 -27.488 -95.3135 -24.7393 -24.2044 -72.7937 -82.9583 168.995
7678 2 -14.859 -85.505 -15.1778 -1.18604 -3.41894 -119.777 -59.0866 -76.7216 -0.851709 -88.1625 204.789
9297 2 -13.1812 -87.3478 -16.1265 -15.8596 37.1453 -178.381 -127.275 -52.053 11.2526 -87.228 308.127
14605 1 -18.4823 -87.1678 -14.9182 -127.441 99.2509 324.503 -45.4816 116.396 120.444 -360.568 493.518
4514 1 -16.278 -84.7705 -14.8974 -80.056 64.6032 174.73 -14.9303 116.375 37.6098 -362.31 307.451
2286 2 -18.0771 -83.0022 -20.5331 -50.3395 -26.4872 -36.6673 -48.9538 -42.3824 -74.8375 -74.1478 172.656
9403 2 -7.55117 -89.4254 -15.5625 -191.736 194.869 -320.258 -94.8588 -58.1434 -27.8646 -110.588 505.108
6935 2 -12.6021 -89.4436 -17.7581 -113.961 135.268 -254.251 -69.5746 1.76536 7.9713 -74.8627 362.605
29840 2 -12.8048 -84.8392 -16.6033 -6.94607 63.3023 -123.728 -88.454 -31.2708 -16.9034 -86.1868 232.464
29685 2 -13.1094 -88.0147 -19.9233 -164.135 36.1677 -125.794 -76.6708 47.4029 -54.0055 -74.3104 258.916
9692 2 -8.93522 -88.7902 -17.9934 -97.291 134.495 -228.616 -90.2007 17.5662 -75.9864 -92.5083 379.56
4791 1 -11.962 -88.6949 -18.9899 234.546 -137.683 393.904 153.494 -99.8272 66.7272 -380.041 580.69
14601 2 -11.0003 -87.5054 -18.4372 -15.4874 32.982 -165.802 -75.8251 33.9494 -78.5265 -85.8895 267.273
17077 1 -9.47083 -87.2285 -18.0347 70.2217 -178.036 335.476 140.708 2.33646 211.572 -350.542 625.734
16980 2 -8.97894 -86.8122 -16.5564 -66.7703 164.372 -184.899 -99.6586 -66.0891 -35.8172 -99.5369 376.076
9608 2 -8.91442 -86.2836 -19.1894 -66.0958 91.9622 -128.326 -14.0798 -22.7492 -186.809 -86.0256 381.486
6903 1 -9.00606 -85.9538 -15.2084 139.026 -394.475 352.906 218.665 249.218 -79.1671 -337.923 890.532
4600 1 -8.24708 -85.6578 -20.4738 86.24 -153.315 288.278 -9.71622 93.258 443.696 -373.957 873.83
12377 2 -9.79817 -84.6215 -15.595 -53.9276 170.939 -141.881 -76.3645 -116.108 21.5504 -91.4675 370.688
7304 2 -12.5594 -84.3149 -19.2117 -61.8152 47.8304 -35.3904 -60.8486 -50.8139 -107.022 -78.4581 251.074
7190 1 -12.6366 -83.98 -20.8262 168.475 -91.309 142.183 56.5263 80.9414 277.641 -380.759 567.311
7270 2 -8.10579 -84.06 -20.3801 -44.4761 75.6367 -99.4064 6.64722 -55.7017 -197.758 -82.9066 388.339
6996 2 -7.49439 -85.6482 -14.7017 -115.381 241.903 -184.303 -71.2243 -111.476 32.6898 -98.6977 461.23
4962 2 -6.53752 -89.2756 -17.9171 -261.811 179.705 -171.317 -59.5692 -130.895 -89.3903 -96.2153 499.188
7010 1 -5.22067 -88.7786 -18.7916 488.932 -361.318 259.016 15.1257 502.634 263.143 -365.736 1243.64
7577 2 -5.44769 -88.691 -20.4012 -246.512 172.297 -157.268 -6.92267 -268.832 -64.6521 -72.1597 612.767
14603 2 -5.87521 -87.2482 -15.5285 -190.092 279.464 -211.331 -6.12052 -65.4201 -50.6903 -104.907 501.565
19013 2 -4.86965 -87.2214 -19.0583 -171.752 189.118 -130.716 57.4836 -260.958 -174.622 -85.3909 650.223
14595 1 -6.01643 -85.6437 -15.3154 289.604 -543.232 304.253 -63.1182 184.136 85.7726 -340.179 917.481
19399 2 -1.33554 -84.802 -16.9207 -20.0996 63.7501 -130.774 51.0711 -166.844 -53.8483 -83.2457 358.6
12381 2 -6.10419 -84.66 -16.5796 -122.797 206.598 -125.086 60.0159 -146.697 -93.5029 -93.2591 459.189
12112 1 -1.29916 -83.9156 -15.5663 4.73772 -101.355 288.133 -124.25 297.336 122.605 -371.955 691.571
12384 2 -5.14367 -83.9315 -18.9986 -91.0634 58.9813 -50.1796 18.7087 -172.338 -115.685 -91.2597 385.164
14899 2 -2.40704 -83.6135 -19.0289 -30.0176 16.2622 -48.017 4.99869 -123.088 -5.86433 -92.5109 221.198
10070 1 -5.34552 -87.0326 -20.5656 314.449 -305.58 343.976 -43.843 515.202 323.046 -375.328 1232.38
7303 2 -6.85336 -86.4267 -20.6453 -89.4754 110.332 -172.272 1.30398 -150.691 -201.454 -79.9606 503.191
12208 1 -1.06424 -84.3123 -18.404 46.6381 -41.5824 185.976 7.7118 272.586 -75.8351 -354.962 528.99
11895 1 -5.76945 -83.3948 -17.5464 161.35 -234.655 138.475 -62.0521 304.262 172.944 -354.367 726.149
24956 2 3.47101 -88.4707 -19.206 -288.344 166.692 -110.992 -39.8606 85.0425 -37.4543 -89.5987 434.145
14763 1 3.02369 -87.5816 -20.4952 498.092 -411.207 216.559 161.019 -111.982 -14.0309 -341.544 875.26
16880 2 1.71251 -86.7563 -20.2647 -164.001 195.576 -121.715 -149.892 -46.122 44.2557 -91.7643 442.198
17158 2 -0.485163 -85.4124 -19.4003 -52.6163 68.1305 -93.5025 -69.8542 -153.364 47.6328 -87.5694 336.445
14316 2 0.322968 -83.628 -15.3071 -19.4258 22.0464 -123.032 25.4573 -44.2589 -21.5804 -79.4231 161.149
12172 1 0.449792 -85.8705 -20.6578 198.721 -257.757 194.755 263.828 223.419 -111.541 -350.177 776.187
17246 1 6.67509 -89.3398 -17.0565 550.426 -447.236 333.308 -184.147 -333.443 72.9254 -370.127 1130.09
12103 2 5.638 -89.0312 -20.4952 -258.719 189.137 -108.398 57.0029 138.287 -54.2442 -89.4229 481.45
9595 2 6.83649 -88.6513 -15.6088 -250.217 175.376 -167.745 129.916 157.059 -4.24126 -84.0169 526.805
15225 2 9.57933 -87.9887 -20.5282 -22.718 111.27 -203.563 11.1751 110.382 14.7575 -77.6558 335.365
15052 1 7.81374 -87.5881 -14.8324 405.468 -248.068 208.804 -206.122 -282.835 -53.6924 -356.077 844.603
22569 2 7.10665 -86.9036 -20.3244 -111.296 90.4768 -74.0712 112.102 152.052 -31.2703 -89.5293 380.237
14500 1 8.64778 -86.7536 -20.0177 80.7089 -140.577 232.262 -128.765 -251.628 27.3686 -362.092 589.416
17105 2 8.01103 -86.5016 -16.0608 -178.925 90.7402 -57.933 80.0892 128.563 -28.5864 -91.6933 354.98
14878 2 8.89631 -86.2223 -18.5019 -92.79 78.1348 -84.6976 52.7496 80.9098 -29.0689 -89.6555 241.701
17365 1 8.58459 -85.431 -17.1324 316.447 -240.306 86.3367 -84.6249 -190.135 121.301 -351.452 639.446
15104 2 9.81606 -84.9377 -16.1978 -135.984 114.804 -19.8655 40.0493 76.9337 -67.6204 -91.5537 289.038
19670 1 10.1348 -84.222 -20.413 81.3685 -244.618 198.562 -85.254 -119.947 66.8237 -357.892 486.382
17074 2 7.92938 -83.998 -17.5779 -143.378 196.6 -100.104 3.47682 89.886 -42.5828 -91.0326 363.951
24673 1 11.1136 -88.4448 -20.2111 153.615 -242.106 512.609 -1.52845 -156.354 -46.6797 -382.112 712.332
15041 2 9.26866 -85.4783 -20.8551 -46.9708 83.3651 -92.3247 51.4724 118.192 -34.5671 -87.4197 279.994
17462 1 10.2278 -84.8016 -14.661 249.224 -228.055 42.9076 -106.416 -142.224 95.832 -348.452 542.308
17213 2 11.1428 -88.6239 -18.6182 -84.8614 120.422 -199.408 -1.29605 20.3945 -1.55255 -76.3055 282.907
14433 2 11.2086 -87.9938 -15.9025 -85.7475 75.7876 -90.431 3.37404 4.94479 1.00589 -82.1851 164.264
22686 2 11.2709 -84.6761 -19.3411 -13.989 143.903 -152.293 19.8296 36.1555 -29.5831 -88.1983 271.333
12596 2 16.7181 -89.0031 -18.6899 -141.054 184.169 -303.448 -17.6596 38.5394 -17.7869 -85.5439 437.375
17179 2 13.1783 -88.9468 -17.2515 -82.0704 127.595 -186.553 -21.46 -9.64706 12.0749 -75.2217 280.858
21987 1 14.6408 -88.8949 -17.9413 149.372 -283.717 484.774 107.218 -57.6419 -17.7587 -374.616 700.515
19757 2 14.2466 -88.2784 -19.4151 -80.999 114.916 -266.295 -42.0968 64.4174 -23.5566 -83.2998 358.399
14786 1 11.8626 -88.0141 -17.3438 136.83 -137.844 223.494 34.9978 18.6194 2.48868 -373.85 333.907
24852 2 15.2711 -87.7707 -16.9347 -83.8567 101.827 -136.654 -19.8222 6.28784 39.7748 -83.5757 230.463
16902 2 12.1604 -87.1417 -20.5227 -47.0279 80.8073 -222.005 -8.64213 44.7654 -33.1465 -83.2512 280.819
27090 2 12.2899 -86.4839 -17.7427 -31.8828 67.0769 -103.044 -10.7295 9.26753 -9.23939 -85.8895 150.858
14524 1 15.6608 -86.5076 -16.0398 147.431 -206.61 190.273 -32.0469 5.40053 -39.1322 -365.95 387.441
17088 2 14.4577 -85.5871 -15.3901 -41.0641 98.9483 -100.164 27.8232 -1.85788 -5.63264 -84.9799 183.845
22266 2 16.4831 -85.492 -16.9214 -59.5889 143.968 -132.16 33.0141 12.0296 5.12033 -85.0514 255.454
12212 2 13.8817 -85.2551 -19.6016 -48.1328 146.338 -170.92 4.07459 37.6022 -34.598 -87.0304 290.958
12304 1 12.5874 -85.1789 -18.637 20.2869 -312.19 300.804 -28.6548 -51.357 48.2667 -361.528 547.596
19393 1 15.0343 -84.4646 -20.4517 151.129 -292.481 268.016 -10.8272 -124.25 62.0578 -362.001 566.149
24850 2 16.1459 -84.0707 -19.2842 -30.867 144.471 -176.331 14.263 73.3369 -16.2976 -86.0984 308.141
22084 1 16.8411 -84.1756 -17.8135 55.3677 -325.479 357.512 -55.1102 -79.6381 2.54325 -363.689 616.088
7206 2 12.9653 -83.7795 -17.8138 -12.9667 162.87 -111.226 24.9811 27.7812 -25.1272 -86.7319 252.849
19868 2 16.3188 -87.1244 -14.6827 -87.4261 74.8925 -115.216 19.3209 -13.1658 39.0847 -82.8855 194.559
17561 2 18.5455 -89.1033 -16.5879 -208.636 180.225 -245.618 50.9453 26.8006 46.7879 -80.2177 428.334
17390 1 18.9573 -89.1138 -15.0358 457.315 -352.619 421.094 -94.8467 11.4281 -124.122 -389.742 837.596
22053 2 18.9604 -89.0394 -19.5219 -182.705 216.531 -339.445 88.0982 4.75694 -51.675 -81.4816 527.158
27064 1 17.6749 -88.0308 -19.4463 214.799 -381.101 540.973 -74.4452 -60.3408 105.306 -361.576 846.564
29923 2 18.1344 -86.6963 -18.8961 -44.4738 155.677 -228.175 77.8201 28.409 -5.68111 -86.3606 362.298
14692 1 20.4852 -86.4864 -15.6535 72.3689 -139.019 382.432 -340.806 63.9742 -64.2369 -377.161 761.23
29733 2 22.0737 -86.1598 -15.7063 31.0112 20.3995 -221.188 157.367 -26.7566 16.7411 -77.7197 371.918
17695 2 19.938 -86.1538 -17.134 5.34587 95.2281 -200.938 155.011 6.01339 5.7147 -83.2573 376.118
12320 2 20.2133 -85.6528 -19.8816 66.3745 71.1259 -234.662 153.713 9.27289 -3.37062 -83.9715 404.043
17101 1 19.2799 -85.6235 -18.4821 -68.147 -228.904 442.793 -230.042 -40.6554 -21.9257 -365.418 730.889
17081 2 18.4344 -84.2907 -18.1172 47.1659 155.448 -223.06 49.8687 24.0759 9.92266 -84.1002 351.43
14602 2 22.4984 -83.691 -16.2491 -5.94178 47.82 -141.792 39.3609 -6.40126 34.3234 -89.2937 192.235
17553 2 19.9702 -87.8936 -15.0244 -142.426 109.322 -216.336 115.723 -14.8513 65.6522 -73.744 375.785
2429 2 19.7432 -85.4037 -14.7012 -44.1066 28.1209 -98.0608 139.757 -30.3809 42.5305 -79.7135 280.742
19586 1 23.1869 -85.1693 -16.1887 -63.3007 52.6372 320.909 -157.476 -37.3971 -40.0206 -363.881 447.114
22265 2 23.6807 -85.4595 -17.7468 -0.726165 -26.9431 -196.66 63.0842 22.419 5.366 -90.4215 217.885
9348 2 28.6854 -86.0137 -16.2306 10.9577 -47.1314 -127.085 -91.5807 152.686 -19.0158 -84.6415 332.56
24752 2 24.3994 -85.1332 -15.1916 52.3279 -92.5336 -120.472 -4.14024 89.2185 33.7406 -80.9999 230.563
22350 2 24.0875 -85.1236 -20.3922 -47.3925 -40.2753 -110.197 23.0673 -13.2979 15.0136 -94.5695 85.1178
19875 1 28.0991 -84.6399 -15.6612 -112.243 117.542 179.296 206.202 -307.262 9.45669 -363.946 694.162
24855 1 24.3223 -84.767 -18.9345 54.7643 83.5564 265.478 -14.4834 -40.0884 -49.6286 -342.844 228.039
27262 2 27.1868 -83.7058 -16.6542 42.1007 -52.0622 -102.899 -91.0944 125.231 6.71052 -87.3563 297.181
24582 2 28.9736 -85.036 -19.4887 37.7014 -65.4644 -90.863 -42.2156 91.7287 -58.6208 -84.777 234.108
17093 2 29.0384 -87.3258 -18.2966 -69.4991 29.0743 -167.766 -33.9929 146.366 -36.4569 -76.6388 317.463
19968 2 25.2548 -83.5897 -18.4415 3.46467 -41.2262 -126.045 -25.1534 47.0148 22.1448 -95.7169 151.6
24771 1 28.655 -83.4321 -19.7823 -106.966 80.7231 175.961 -34.9782 -78.9471 130.107 -365.777 367.864
29562 2 29.4157 -88.5371 -15.7073 -161 138.362 -234.641 10.0066 147.938 2.27318 -72.7671 427.854
22246 2 29.4563 -83.8617 -15.3219 48.779 -53.8052 -80.7642 -72.8126 135.186 -6.97959 -83.8994 291.364
29846 1 29.3912 -86.5806 -19.6759 4.90487 51.1908 249.58 98.3197 -230.439 87.8558 -376.498 512.002
7309 1 29.5432 -87.2951 -16.7843 127.412 -36.738 308.646 62.1988 -266.44 53.4683 -375.144 568.061
2197 1 35.1563 -87.0825 -15.4672 -9.00107 134.623 212.438 36.224 -157.367 -31.636 -351.71 345.096
9634 2 33.4668 -87.8154 -20.0412 -73.4602 -4.04112 -176.186 -24.5758 42.3295 -32.2591 -70.1077 181.141
29615 2 31.0869 -86.9012 -16.8002 -19.2601 -52.2782 -122.485 -23.2075 116.635 -26.6992 -82.5035 230.006
4949 2 30.9818 -86.699 -19.8711 -2.37114 -37.5083 -128.725 -37.6053 70.7467 -48.5305 -76.4561 197.696
22061 2 33.6584 -86.6608 -15.8204 46.9582 -76.6449 -80.0053 -25.4827 126.278 -1.37907 -87.0274 255.922
29487 1 32.5712 -86.5032 -19.7068 33.4938 79.2097 207.625 54.1909 -73.0587 122.094 -383.345 306.586
27152 2 32.8629 -85.9649 -18.2461 -1.00996 -62.4493 -54.924 -20.7143 75.0042 -50.4735 -78.9755 170.81
9613 1 32.4475 -86.0511 -16.6758 -73.4909 144.087 154.192 57.9815 -250.889 41.076 -367.035 503.61
29813 2 31.9683 -84.6353 -16.0929 23.6939 -26.5279 -79.2171 -1.77195 126.036 -35.6498 -84.4295 243.766
19777 1 31.0652 -83.6103 -15.1391 -82.6026 40.548 182.986 28.8221 -226.002 80.1348 -368.563 477.476
24773 2 32.9506 -85.4793 -20.8741 -13.9875 14.5787 -121.083 7.97937 14.241 -103.38 -75.824 219.559
9682 2 -23.2249 -83.1185 -20.2159 -42.2068 28.5434 -84.3236 0.66553 59.5544 -65.2383 -76.7052 182.123
24865 1 -24.683 -82.8842 -20.8128 73.1685 -25.1916 207.353 -28.8005 -96.5145 107.685 -378.62 325.73
2300 2 -22.7462 -80.849 -17.1988 -121.796 87.3453 -16.7797 -19.2699 -21.6213 -108.059 -84.156 265.239
29836 1 -22.7898 -80.7505 -15.5958 310.093 -241.026 61.6338 24.6143 5.80737 312.766 -360.667 723.824
29860 1 -20.6445 -80.7026 -20.5497 194.62 -122.97 90.9807 56.7738 63.0683 165.258 -373.362 426.875
4782 2 -21.6695 -80.1963 -19.4308 -93.8814 82.3392 -67.5471 -24.976 -29.7559 -59.3983 -83.8076 205.472
29859 1 -22.3202 -79.5677 -18.1625 205.077 -134.759 68.5407 16.7436 46.0652 151.442 -359.986 404.651
19985 2 -23.4592 -79.2493 -15.4884 -175.013 73.3902 -53.9407 22.8711 32.3258 -135.601 -89.2202 325.815
27284 2 -21.209 -78.855 -17.2327 -116.504 59.3956 -51.1639 -9.6482 -53.9979 -95.7407 -88.3658 245.443
20195 2 -23.6973 -78.76 -18.5475 -73.4103 29.6979 -25.2694 30.1141 22.0287 -72.6779 -88.2418 167.355
29920 1 -24.3803 -77.9291 -15.392 191.112 -71.1898 127.292 11.0804 -66.0067 176.194 -360.292 403.37
29643 1 -20.3521 -77.4828 -17.136 110.366 7.53144 105.548 -36.6171 65.2663 139.506 -357.53 292.044
27656 2 -21.3948 -81.3327 -14.9642 -131.839 104.343 -11.448 -39.8274 -18.5968 -125.158 -85.3319 307.622
25118 1 -25.1492 -78.5176 -19.2323 88.5611 -45.9811 65.2372 -85.0837 -84.0403 94.7998 -366.535 292.189
4883 2 -20.4789 -77.0863 -18.6402 -60.475 -30.1223 -40.2231 -4.2083 -35.1333 -56.361 -92.4621 118.333
22477 1 -20.684 -82.7817 -14.7422 130.214 -142.525 36.076 54.5126 85.9895 109.513 -362.403 353.058
27180 2 -23.8603 -81.6196 -14.8403 -127.238 114.495 -58.1967 17.8342 35.2676 -161.258 -88.5447 359.458
89 2 -14.4525 -83.318 -17.7875 -95.3342 19.9144 -60.2699 -59.4327 -30.8628 -82.0385 -81.3734 210.038
4727 2 -19.1573 -80.6254 -19.9663 -72.2602 54.8933 -86.4287 -47.7552 -31.8673 -88.2885 -79.5609 226.811
9782 1 -15.1901 -82.5365 -16.5451 146.581 -47.2717 151.888 59.7612 -3.30573 187.135 -371.644 392.99
7113 2 -18.7336 -82.5536 -18.205 -25.2298 15.9655 -98.0548 -40.8918 -16.0256 -133.434 -78.6979 263.061
9511 2 -14.1225 -82.4756 -15.4207 -83.3681 35.9858 -86.8038 7.47266 -1.08152 -22.3532 -83.911 127.817
27469 1 -18.153 -81.8021 -19.4868 39.3094 -21.0506 198.872 103.855 23.9436 205.013 -380.68 445.985
27245 2 -16.744 -81.1749 -19.3503 -7.18831 2.87224 -108.152 -51.6328 -6.82225 -91.4991 -75.877 211.103
27437 2 -15.5351 -81.0747 -17.1197 -66.6915 52.726 -86.324 -37.2254 18.4477 -109.305 -76.5275 240.855
29673 2 -14.1245 -80.7288 -19.3527 -79.3691 41.0089 -66.4213 -22.879 -63.1191 -84.3991 -75.7954 219.071
4717 1 -15.5481 -80.3905 -18.6136 88.0358 -113.267 232.769 72.0932 23.8596 197.274 -383.126 473.98
7398 2 -15.7217 -78.8453 -18.8096 -20.8723 48.6091 -128.886 -38.5882 -15.8738 -67.6502 -76.4897 207.249
9903 1 -15.9869 -77.3447 -19.4374 -57.2425 74.6226 147.433 37.5401 32.8988 99.5355 -376.284 263.605
192 2 -16.7844 -77.5041 -20.8227 31.3427 -66.6209 -40.7453 -14.1183 -14.5979 -79.307 -79.9249 166.846
2232 2 -18.803 -77.2617 -16.7813 -0.332178 -24.2301 -57.4039 15.7518 3.98277 -45.9378 -81.769 97.9142
27476 2 -13.0725 -78.188 -15.1663 -107.434 103.732 -38.922 -32.6848 0.718814 -43.0327 -81.2039 208.757
12181 1 -10.117 -83.0946 -15.5492 133.52 -310.156 202.835 118.221 224.368 -9.18425 -361.216 652.389
17273 2 -11.6069 -82.7459 -15.0595 -30.946 111.71 -106.284 -15.2631 -44.5746 18.258 -86.1465 210.793
7658 1 -8.29851 -82.483 -20.7237 52.4482 -68.083 118.222 51.0662 99.1538 329.988 -368.928 625.12
4808 2 -9.64865 -82.4611 -16.8761 -83.855 123.216 -69.068 -47.7677 -129.769 -45.9812 -82.303 322.092
2466 2 -8.85714 -81.8752 -19.3252 -68.8476 55.5444 -13.2376 -56.3841 -80.9744 -105.986 -80.1368 273.048
7203 1 -13.0324 -80.8646 -20.4815 157.254 -46.15 87.5028 25.6244 132.212 124.179 -382.412 364.31
7478 1 -8.52936 -81.703 -17.781 216.304 -192.276 67.7964 127.249 263.277 129.419 -371.343 659.609
4428 2 -8.7243 -80.1406 -17.3627 -123.516 109.535 -29.7255 -57.6952 -113.948 -37.9303 -80.0431 307.419
11915 2 -11.7406 -79.9986 -19.9275 -55.569 42.3659 -38.6825 -8.22951 -50.0755 -43.7969 -76.2285 147.319
4620 2 -10.8621 -79.2483 -16.1469 -121.019 93.6251 -8.76504 -30.921 -61.0914 -53.5617 -81.657 239.269
4804 1 -9.64672 -78.8445 -17.161 221.084 -193.868 -28.0937 89.9594 152.022 118.206 -374.583 516.146
12098 1 -11.1555 -78.4797 -20.0103 119.427 -111.893 84.0245 44.3862 125.967 43.278 -376.86 325.125
4856 2 -10.2502 -78.333 -18.6495 -88.1188 70.35 12.0308 -42.918 -57.8694 -50.1221 -79.259 205.866
83 2 -8.66765 -77.6889 -16.6185 -94.3343 81.3489 6.18964 -23.7699 -85.7982 -61.5017 -83.248 241.735
14297 2 -12.8152 -82.3446 -20.8848 -85.3555 16.2773 -51.9528 -17.6472 -61.6676 -105.955 -76.8537 232.534
14596 1 -11.8811 -79.2292 -14.8154 263.508 -256.665 86.3234 39.0894 45.6864 79.8991 -365.859 489.698
12679 2 -12.1895 -77.2461 -19.9298 -46.5366 9.86768 -68.7607 -4.65461 -39.4649 -7.6396 -81.1264 99.2039
14508 2 -7.03147 -82.4331 -17.6727 -104.288 93.0428 -59.3095 -23.1854 -136.531 -78.4922 -86.4899 328.793
17361 2 -6.90922 -78.2461 -15.0072 -67.687 58.5033 -10.2537 -24.8983 -102.425 -34.7346 -84.7906 221.195
14689 1 -3.7887 -83.4796 -19.7248 132.418 -61.8221 33.6495 11.0171 278.869 156.264 -348.997 578.985
9792 2 -4.55656 -82.5888 -16.963 -66.6118 77.4235 -75.8419 61.5317 -141.104 -15.4365 -89.3476 306.538
12008 2 -2.14319 -82.6448 -16.0051 -38.0985 72.644 -147.02 54.5093 -170.5 11.1921 -87.4463 364.267
2135 2 -4.3333 -81.9606 -20.0926 -76.2488 41.7105 20.2635 -13.1105 -108.234 -91.0848 -91.9114 269.059
17293 1 -3.37353 -81.6314 -16.2823 154.344 -207.698 192.199 -126.415 326.598 -92.0553 -358.59 734.558
9600 2 -2.89362 -80.3828 -17.1979 -84.97 114.185 -58.3081 41.0225 -112.995 25.1142 -88.8011 283.387
12195 1 -1.79023 -79.633 -18.0261 260.038 -261.963 26.7178 -12.345 119.986 -11.2701 -351.523 499.157
2406 2 -2.48522 -79.155 -19.4411 -105.93 113.196 32.0475 -7.20987 -31.0372 -6.46096 -92.1774 199.976
7266 2 -5.52029 -79.6203 -20.7823 -49.5242 91.1126 -18.7469 -49.8381 -72.6334 -33.3586 -89.2864 207.399
9828 2 -3.89048 -81.0422 -14.9351 -108.359 104.103 -63.6916 60.5237 -187.172 78.2537 -85.1085 414.856
17506 2 -0.95967 -78.4315 -17.3377 -138.987 73.5503 2.46734 19.836 -37.5998 25.1737 -93.0359 206.009
9975 1 -6.19718 -78.1669 34.6845 48.3537 -86.1358 42.6809 162.389 103.105 -73.7725 -356.362 380.376
12272 2 2.87771 -83.4682 -19.8302 -134.879 111.287 -48.3438 1.02523 -32.7864 81.79 -94.1481 264.728
19907 2 2.57986 -82.9785 -16.9036 -34.614 8.76908 -101.492 -25.0511 -6.08228 48.423 -87.7639 135.219
14502 2 -0.0029841 -83.1194 -18.1988 -51.4542 19.0623 -111.287 -20.0967 -95.8619 60.2476 -93.6731 229
9577 1 1.62666 -82.6523 -15.5763 109.047 -14.813 171.02 31.0676 -45.7854 -98.3877 -367.043 255.114
14597 2 -0.711044 -80.6991 -18.4141 -101.195 141.727 -48.2006 -32.2687 -58.2471 11.9691 -92.7987 250.355
7276 1 3.00894 -82.5676 -18.4433 42.716 -75.2829 181.368 -27.693 50.877 -126.277 -351.191 327.738
19605 2 4.48239 -81.9678 -18.361 16.0897 67.0767 -119.971 58.431 20.3665 36.9278 -91.0725 208.872
12009 2 0.794257 -81.4476 -16.3896 -47.5146 73.8342 -128.271 -31.6938 -27.2161 93.3662 -89.301 249.869
12484 1 0.500266 -81.6015 -17.8981 105.44 -161.842 224.384 75.3472 118.474 -111.323 -348.409 462.274
19781 2 1.89932 -81.4567 -18.7518 -32.907 77.5835 -67.7628 -20.7883 -51.0456 40.9234 -92.2323 177.234
17095 2 1.18611 -77.671 -15.6979 -63.612 38.7266 -14.7467 12.0757 -40.6571 49.8785 -92.0084 143.945
7393 1 -0.266018 -77.2668 -16.4566 225.553 -72.265 -60.9048 -83.0704 51.2207 -76.025 -348.262 362.428
12204 2 1.96998 -77.4484 -20.2715 54.6665 52.4498 -82.1782 -9.42321 9.9627 111.969 -93.3296 237.915
29717 2 -0.427038 -78.6163 34.9093 -94.5075 86.8788 -1.6094 -40.9403 -3.68289 74.4075 -98.4721 215.311
12294 2 9.18228 -83.2332 -19.6635 -77.657 170.394 -103.522 23.6883 66.0087 -3.02589 -91.3803 288.785
7179 1 8.30837 -82.6451 -18.4456 191.2 -404.048 265.63 11.7727 -150.355 16.2461 -347.98 687.89
22365 2 7.00347 -81.7404 -18.7121 -66.3648 144.174 -125.106 16.7473 83.1089 4.06542 -95.1461 285.931
14770 2 9.25723 -81.6417 -17.5765 -57.1335 164.612 -127.856 1.6138 73.5988 -32.0073 -94.5297 298.641
17392 1 5.70621 -81.0256 -18.1139 39.6974 -192.377 213.867 -110.266 -80.4466 -42.0829 -347.15 431.066
17195 2 5.78359 -80.7067 -16.5139 -25.8112 65.0753 -63.3191 24.3044 -5.99657 8.89274 -89.9402 123.261
7496 2 10.7572 -80.2355 -15.8026 -15.4414 109.689 -88.1066 -7.48627 71.7771 -53.7384 -91.8485 233.062
17290 2 10.2436 -80.2632 -20.6411 9.59479 73.3399 -72.5861 -8.39813 38.2058 -7.51314 -94.5248 144.277
22285 1 9.56383 -80.2292 -16.8127 45.6229 -253.756 216.03 24.4292 -147.03 75.7443 -343.908 503.526
17208 2 8.22936 -79.8262 -16.027 -72.5427 104.964 -63.7723 0.225834 40.6296 -37.1428 -94.2916 197.788
14988 2 5.68824 -79.5197 -18.657 -30.5118 115.334 -100.403 43.7774 39.0632 14.6228 -96.863 217.527
19791 1 6.66505 -79.6935 -15.5985 106.674 -113.406 69.9959 8.92631 48.8587 57.4462 -353.69 242.918
17207 2 7.77922 -79.2054 -20.1803 -64.8703 63.0226 -52.4647 30.3764 68.7774 24.7023 -102.308 183.613
17500 1 6.22789 -78.8859 -19.9916 110.581 -200.746 135.037 -74.693 -129.739 -77.0239 -332.717 436.083
9886 2 9.75082 -79.0481 -17.8641 -7.57759 132.283 -123.369 -4.00856 57.291 -5.435 -99.6377 243.202
17468 2 6.38088 -78.1164 -15.844 -5.57995 73.4783 -76.6899 -9.93455 -52.2274 -22.7366 -91.5299 164.191
12574 2 9.49952 -77.7126 -20.0678 6.0352 81.9686 -70.3159 34.133 32.5543 49.4026 -100.968 177.17
20559 1 9.27834 -77.6177 -18.4909 42.7445 -252.056 231.383 -59.7344 -107.1 -94.861 -327.713 500.214
22361 2 5.82532 -77.3699 -20.2458 -26.2015 92.5088 -92.0929 -6.98176 43.6504 73.0356 -100.836 219.364
12569 2 7.76264 -77.4293 -17.9212 -50.6172 116.552 -132.101 28.907 55.8742 28.5103 -103.944 250.036
14875 2 16.3045 -83.0664 -16.8088 -38.7546 123.115 -144.133 37.5712 35.1323 -32.2105 -86.5015 255.762
19885 1 12.9973 -82.2063 -17.7196 16.511 -230.478 212.137 -45.4096 -72.3809 35.9495 -354.101 416.378
20254 2 12.0703 -81.5122 -18.832 -1.83537 100.458 -126.903 17.3396 37.8318 -10.0155 -92.894 210.703
19893 2 12.8231 -81.8099 -16.1881 -43.5103 86.0927 -82.5843 33.1763 39.7031 -64.5922 -90.0369 209.607
17367 1 16.4724 -81.844 -15.7162 18.3663 -160.679 196.906 -85.7314 -66.2834 60.0203 -362.874 376.747
22268 2 14.4122 -81.5223 -18.2805 -2.42251 73.1011 -136.376 13.0171 61.4616 -3.64719 -92.0078 213.647
19687 2 15.4609 -80.9459 -20.6382 13.5137 14.3699 -76.4966 27.6218 56.7685 21.0047 -87.4438 146.493
22215 1 12.2015 -80.6488 -15.1757 81.4196 -179.98 168.856 -58.919 -89.4605 142.148 -355.168 440.31
17285 2 15.4842 -80.5308 -15.595 -13.8337 63.4596 -106.684 35.4373 45.0558 -13.9319 -88.3074 179.477
6975 1 11.7471 -80.5705 -20.0865 -29.1676 -176.04 199.05 3.32631 -94.0842 7.69744 -348.051 365.978
14894 1 15.4442 -80.4861 -19.0565 -86.1322 -114.364 304.271 -29.9101 -137.992 -22.9008 -352.309 474.991
24953 2 16.8024 -80.2584 -18.3782 89.5035 31.7451 -189.287 35.4754 43.0884 -6.86002 -90.5322 272.845
19600 1 14.7587 -79.1424 -15.1075 17.6809 -117.383 178.584 -89.2416 -171.309 10.9308 -357.106 422.085
7521 2 14.6356 -79.1213 -19.0793 14.7573 86.2924 -147.801 11.9101 78.1987 -6.52325 -93.008 249.137
14913 2 12.1427 -79.0933 -19.576 22.544 88.4908 -126.199 5.09206 54.9603 -16.1194 -95.7382 214.946
24685 1 13.4604 -78.1273 -19.4293 4.74221 -210.145 240.967 -40.4429 -141.377 63.1589 -345.459 479.142
19997 2 15.0796 -77.9592 -16.0968 7.94251 44.4582 -111.431 35.2265 78.5952 1.23121 -91.5957 205.43