ITEM: TIMESTEP
700000
ITEM: NUMBER OF ATOMS
29952
ITEM: BOX BOUNDS pp pp pp
-2.5215326849417927e+01 3.5200621184295613e+01
-8.3002647770274137e+01 9.2987942112274141e+01
-2.0972667834995136e+01 3.4840520979710341e+01
ITEM: ATOMS id type x y z v_StrAtomXX v_StrAtomYY v_StrAtomZZ v_StrAtomXY v_StrAtomXZ v_StrAtomYZ c_PEAtom v_VMS
24862 2 -23.3696 -79.6582 -19.0846 -6.2606 -95.2699 8.53319 19.3773 17.5692 -58.1497 -89.3474 147.156
2392 1 -22.7156 -79.7245 -20.6185 9.97155 116.054 83.3447 -14.9503 27.1377 117.332 -369.251 230.29
1999 2 -22.0868 -80.1121 -16.7316 33.3728 -162.964 12.6985 38.936 -29.6261 4.09073 -99.0505 205.299
4705 1 -21.5335 -80.3426 -15.2906 -187.064 286.065 202.605 6.22664 29.0588 -8.21212 -326.411 440.661
22195 2 -24.466 -80.4957 -16.7089 -3.33236 -167.531 11.8576 5.50541 45.4374 43.7336 -101.626 204.227
9397 1 -23.2696 -80.5918 -17.7845 60.648 316.475 -84.544 -56.755 -8.524 -55.2824 -345.963 377.786
24846 2 -21.5138 -80.8465 -20.4706 -33.8518 -119.492 -73.9451 18.0644 -56.3295 1.77086 -79.5161 126.552
29595 1 -20.0001 -81.5208 -20.3979 76.1164 199.385 151.728 7.49512 97.0798 -98.0188 -390.554 262.406
29564 2 -23.1113 -82.1099 -18.4173 -111.037 -32.0486 -81.0065 13.716 -3.65686 57.4997 -81.5181 123.661
2338 2 -24.3193 -81.3991 -20.5683 -44.4723 -80.4859 -114.39 -16.0055 21.6526 -9.75008 -80.7983 78.28
27158 1 -23.6234 -82.7286 -19.8135 279.923 -67.789 376.91 -30.154 19.8581 -85.4031 -390.767 435.69
4724 2 -19.4343 -80.9654 -18.9971 33.9117 -115.582 -64.1048 7.09643 -14.3689 35.713 -77.1861 147.985
2417 2 -22.0829 -78.2235 -20.6477 8.04549 -13.5892 -44.3985 24.0074 -0.215973 -82.0104 -81.5589 154.888
7277 2 -19.21 -78.6233 -17.6652 97.1593 -101.656 -53.9474 18.009 -32.4214 -84.1684 -88.7438 240.203
29762 1 -19.8795 -77.1157 -17.5852 -81.5504 68.1376 71.0438 -4.4895 91.8992 246.734 -360.673 480.5
2506 2 -20.2018 92.9042 -20.7138 -127.19 26.1112 -179.509 -45.5751 -66.3924 35.7661 -58.4162 239.9
27175 2 -20.0543 -79.9708 -15.0051 158.274 -140.678 -105.912 3.77563 -29.1435 -20.8504 -99.1198 289.97
7678 2 -14.977 -78.8508 -14.9641 36.4266 -59.5561 -67.2652 -48.0612 -77.0353 16.0862 -96.7261 188.471
4603 2 -14.5839 -79.2625 -18.4825 -19.3808 -82.6731 -80.0898 -88.7531 -41.8062 -58.6283 -91.3537 207.45
27147 1 -13.6845 -78.0566 -18.0691 58.0772 1.31893 77.9353 116.835 103.555 136.77 -350.53 366.037
4783 2 -17.0557 -80.1743 -18.5268 80.646 -118.362 -103.186 -45.3649 -1.38053 -6.87567 -82.2092 207.692
4623 1 -18.5593 -80.1175 -17.9773 -234.389 280.149 152.126 -5.40585 49.7962 31.4375 -366.911 475.14
7595 2 -15.3836 -80.4963 -20.4384 -18.5952 -53.3604 -54.4638 -69.8027 25.0326 -10.4761 -76.3726 134.442
7105 1 -15.5317 -80.4956 -18.7961 -70.0605 111.043 223.814 140.378 25.591 19.8101 -367.987 358.048
4793 2 -18.3451 -80.8256 -16.5344 130.935 -124.381 -115.567 -11.6884 -57.2876 -12.6684 -85.1074 271.57
12108 2 -15.0007 -81.6739 -17.7932 -10.4939 11.1458 -192.241 -83.4065 -33.6863 13.9514 -81.4141 249.582
14593 1 -13.8053 -82.1289 -16.7799 64.2585 -116.681 403.714 207.848 65.6963 -10.018 -366.08 593.499
14608 1 -13.4505 -79.2378 -15.4248 -106.279 -4.54258 218.877 208.692 77.3171 -32.636 -341.486 484.544
9297 2 -13.4367 -80.7342 -16.0405 30.7809 -3.60996 -145.126 -133.919 -34.5733 -2.33955 -94.2844 288.932
4514 1 -16.3963 -78.12 -14.7289 -140.115 195.754 69.7289 -26.5178 134.148 -13.1658 -345.102 378.125
29685 2 -12.7561 -81.2163 -20.2913 -119.8 7.78862 -129.079 -68.7487 14.7861 -28.3836 -81.7008 186.55
115 2 -13.6418 92.9124 -15.4278 -35.5336 136.435 -255.209 -81.6554 -44.4702 12.9884 -77.8433 376.894
14605 1 -18.4836 -80.5107 -14.9626 -320.671 241.795 220.535 13.9641 99.0937 55.3767 -350.708 586.605
29840 2 -13.0743 -78.3231 -16.5873 14.6678 15.0169 -105.556 -64.6266 -9.84298 -19.5905 -94.8178 168.724
7270 2 -8.13619 -77.5064 -20.3552 -7.56715 55.1168 -106.437 12.6837 -86.2536 -187.426 -89.5577 384.823
12377 2 -10.0938 -78.1751 -15.4851 -29.5443 135.246 -98.061 -88.2465 -85.4359 12.3345 -96.4872 298.09
7304 2 -12.3883 -77.8758 -18.99 2.22246 30.7066 -65.4785 -45.2996 -75.8575 -108.701 -88.0102 257.275
4600 1 -8.17056 -79.1542 -20.4333 15.2975 -129.362 304.976 -9.33717 166.267 398.725 -361.581 840.765
6903 1 -9.30849 -79.5114 -15.2573 67.5585 -310.865 273.474 253.935 170.751 -19.0794 -329.731 738.605
9608 2 -8.83707 -80.0058 -19.3152 -37.15 68.8399 -125.465 -20.9944 -40.8908 -173.372 -91.0973 353.421
16980 2 -9.18231 -80.3139 -16.6495 -44.2546 97.5706 -126.755 -131.237 -48.1284 -78.8179 -102.553 340.406
17077 1 -9.43899 -80.8888 -18.1604 55.6964 -121.825 241.896 164.741 -16.3079 227.734 -342.729 580.555
14601 2 -10.9201 -81.2994 -18.5133 3.63818 11.8955 -141.614 -84.3684 33.214 -63.9139 -91.077 243.483
4791 1 -12.0768 -82.2045 -19.1894 186.208 -104.036 353.582 161.533 -51.524 17.3091 -370.651 497.973
7190 1 -12.5236 -77.609 -20.577 42.4194 -48.2702 106.612 53.2731 119.241 303.513 -365.366 587.96
9692 2 -8.72906 -82.3567 -17.9426 -99.6722 107.493 -165.434 -107.363 20.5272 -76.6351 -95.7721 338.126
6935 2 -12.7849 -82.6667 -17.8302 -69.2119 98.1745 -208.523 -91.1621 -3.54969 8.96948 -81.1934 309.767
9403 2 -7.60972 -82.922 -15.5111 -174.303 153.852 -265.656 -111.873 -37.5909 -26.9225 -114.302 435.855
2181 2 -11.7167 92.8835 -20.458 -199.115 157.327 -219.884 -69.0161 65.9998 42.6146 -69.1609 409.501
4491 1 -7.73848 92.8176 -17.205 394.774 -310.654 360.414 197.736 45.9201 99.8942 -332.082 792.548
7303 2 -6.69337 -79.7141 -20.5422 -41.836 88.0518 -178.062 -12.3355 -192.165 -190.065 -85.6896 522.24
12384 2 -5.23091 -77.1772 -18.91 -58.9245 34.4196 -38.3656 12.3535 -163.692 -113.142 -93.4443 355.617
12381 2 -6.10667 -78.2112 -16.5882 -119.461 174.556 -59.1537 49.4018 -138.502 -122.476 -94.043 426.876
14595 1 -6.18724 -79.1183 -15.2858 235.755 -474.38 234.975 -22.0823 143.361 136.968 -336.439 789.392
19013 2 -4.72234 -80.5168 -18.8683 -109.536 124.877 -92.7664 31.4642 -259.289 -175.226 -86.6633 589.978
10070 1 -5.25307 -80.3871 -20.5478 217.701 -240.125 323.812 28.9666 526.136 309.826 -367.983 1179.15
14603 2 -6.11721 -80.756 -15.3808 -159.152 219.787 -162.103 -31.4375 -52.9586 -53.4266 -107.973 405.788
12112 1 -1.52028 -77.1797 -15.443 -53.879 -27.0642 242.296 -77.976 262.066 115.63 -377.414 587.269
7577 2 -5.36766 -81.9952 -20.2631 -180.805 158.104 -147.489 -32.0346 -271.301 -82.8219 -76.1526 590.888
7010 1 -5.03743 -82.094 -18.6448 355.475 -243.216 176.621 48.5571 534.93 287.927 -363.925 1182.19
19399 2 -1.51468 -78.004 -16.8608 6.54931 12.3688 -119.869 19.4602 -143.216 -51.2191 -81.889 295.449
4962 2 -6.39675 -82.654 -17.8546 -213.606 116.925 -112.211 -72.873 -150.286 -113.767 -96.6248 456.657
12208 1 -1.24482 -77.7232 -18.4056 -1.18484 -22.1438 188.717 71.8318 217.421 -63.1605 -360.241 457.979
7030 2 -3.11387 -82.8343 -15.4632 -22.876 70.1678 -236.962 -17.1886 -124.518 -40.5747 -84.4194 356.018
9226 2 -3.8889 -82.9241 -17.9311 -140.558 101.55 -99.8088 -31.1754 -278.804 -91.6192 -78.6771 558.305
17158 2 -0.585309 -78.6625 -19.5039 -13.3923 30.7564 -114.366 -90.9551 -114.771 41.536 -87.1399 293.451
16880 2 1.54812 -80.1735 -20.2529 -116.383 134.493 -120.86 -149.23 -44.7662 52.9766 -89.6649 381.212
14763 1 2.82391 -81.0157 -20.4563 387.824 -297.352 209.004 184.378 -92.4752 -57.9748 -346.977 718.78
24956 2 3.35323 -81.9157 -19.1943 -221.901 103.214 -94.7135 -52.8785 81.7513 -8.46051 -89.0225 330.422
12172 1 0.387976 -79.2072 -20.6716 128.231 -169.897 188.563 271.998 187.317 -91.1109 -354.509 680.164
14788 1 4.43342 92.8119 -19.4276 622.529 -334.379 205.404 -24.2148 -306.657 78.5464 -357.088 996.444
7078 2 4.24363 -80.4532 34.697 -164.579 144.562 -50.8085 14.3771 75.1519 -20.0726 -94.9403 303.502
17074 2 7.74338 -77.5347 -17.4367 -95.7385 123.998 -99.4451 1.28232 58.0016 -63.5534 -91.297 267.071
19670 1 9.99775 -77.5806 -20.3111 85.4475 -174.871 103.69 -121.138 -128.38 83.3898 -351.366 432.639
15104 2 9.61597 -78.6022 -16.3073 -87.0427 46.7346 -44.3793 47.1808 40.9819 -65.5357 -95.9688 196.496
17365 1 8.38109 -79.0129 -17.1868 208.105 -100.217 94.4492 -122.774 -132.436 93.4444 -346.63 443.815
14878 2 8.47203 -79.7755 -18.5863 -66.6887 42.6819 -64.6838 91.9329 89.5069 -6.29721 -90.6563 247.498
17105 2 7.72213 -80.1047 -16.136 -125.155 32.0656 -63.3045 93.631 87.1608 0.414765 -93.0636 260.598
14500 1 8.47852 -80.13 -20.1388 54.9326 -89.8332 164.759 -187.009 -241.659 -14.3058 -362.397 574.149
22569 2 6.93603 -80.3923 -20.5922 -51.178 39.932 -55.1457 123.555 146.329 -8.95756 -87.3033 344.895
15052 1 7.55577 -81.1841 -14.9518 296.825 -155.481 226.052 -210.254 -151.511 -98.3876 -356.713 638.832
15225 2 9.35919 -81.4801 -20.4458 -9.84059 72.7963 -163.132 35.9034 93.1122 36.3114 -79.2726 277.177
9595 2 6.77839 -82.4339 -15.7505 -207.39 167.796 -198.437 128.792 116.213 32.7677 -82.2357 480.609
12103 2 5.44463 -82.5116 -20.5339 -207.589 104.869 -93.0247 66.5013 129.177 -25.9962 -89.8185 374.584
17213 2 10.8291 -81.9251 -18.349 -56.4674 87.2376 -136.095 13.2492 25.9592 30.5164 -79.8182 209.229
24673 1 10.773 -82.0031 -19.9503 107.097 -195.908 371.171 -26.0723 -112.319 -117.558 -378.254 568.25
22686 2 11.0315 -78.1379 -19.1336 -14.9432 105.582 -140.349 47.572 50.5015 -51.1472 -93.5563 260.108
17246 1 6.57129 92.8558 -17.1497 474.407 -380.593 320.268 -190.155 -294.316 17.4664 -373.43 996.119
24691 2 7.78412 92.6906 -17.9125 -129.778 225.697 -167.617 79.2574 96.4288 1.66427 -74.2725 433.583
15041 2 9.09375 -78.8141 -20.7588 -43.4318 67.9432 -45.707 81.3624 110.446 -29.7016 -87.7016 267.888
14433 2 11.3719 -81.6657 -15.5529 -48.0898 55.4742 -114.192 -3.98321 47.8029 -15.793 -83.719 172.023
22084 1 16.6206 -77.5942 -17.5661 -4.21156 -291.422 244.053 -56.4131 -159.504 22.7085 -347.103 550.316
24850 2 15.8559 -77.595 -19.0309 -22.4591 140.332 -125.131 9.86064 100.581 7.93371 -93.5428 290.837
19393 1 14.8288 -78.0819 -20.1302 122.219 -289.513 178.622 37.6982 -176.286 -1.26196 -349.393 541.688
12304 1 12.3444 -78.576 -18.3174 -18.1459 -241.584 202.976 -53.3693 -85.663 83.3195 -348.732 446.78
12212 2 13.608 -78.7643 -19.2974 -40.5394 147.679 -113.451 5.12136 55.1352 -13.1625 -92.8428 253.345
22266 2 16.0993 -78.8339 -16.7113 -39.7645 135.514 -67.6849 25.7433 53.6514 -20.5869 -92.4317 219.752
17088 2 14.1364 -79.0547 -15.1035 -9.94144 24.4257 -50.1525 32.8237 52.3987 -67.1332 -92.3539 170.791
27090 2 12.0736 -79.9132 -17.4455 -2.37311 46.4679 -73.8434 3.34754 23.9631 -16.5707 -90.6949 116.465
14524 1 15.2657 -79.9297 -15.8736 104.341 -179.886 57.8077 -13.0759 -84.5754 30.9055 -352.789 307.509
16902 2 11.7739 -80.6953 -20.5147 -40.3937 82.2436 -147.795 0.308834 50.668 8.33992 -85.1634 218.305
24852 2 15.0796 -81.0805 -16.9983 -61.1854 91.6238 -61.4801 -44.0303 36.3571 34.1487 -88.5674 191.509
14786 1 11.781 -81.517 -17.0669 79.9786 -95.7457 157.797 25.708 -36.1976 -5.29904 -368.137 237.923
19757 2 14.0466 -81.7291 -19.5249 -46.6481 100.261 -195.191 -43.4179 78.8153 4.41126 -86.8686 299.698
21987 1 14.5588 -82.2764 -18.0683 113.819 -241.397 338.333 124.579 -87.356 -46.4707 -365.501 576.426
17179 2 13.0878 -82.3985 -17.3533 -57.6344 111.452 -139.661 -31.2529 27.1419 17.8045 -78.2964 235.116
12596 2 16.3546 -82.4992 -18.6576 -160.549 144.688 -230.73 -40.7551 69.4216 -13.0831 -91.5973 373.458
22180 1 13.0823 -81.6487 -20.8181 162.115 -186.183 346.257 -4.30716 -151.062 -13.8249 -368.378 537.07
14409 2 11.9993 -82.8481 -20.6232 -107.539 160.787 -235.724 26.1712 83.8613 56.7547 -74.1724 394.515
7206 2 12.8296 -77.1696 -17.5907 1.62165 120.993 -86.0642 40.5505 51.4793 -55.6991 -95.2774 233.658
17544 2 17.0574 -81.2763 -20.9621 -115.698 114.497 -186.611 19.7965 91.6629 -64.2737 -89.0799 336.33
17081 2 18.1748 -77.7937 -17.8548 58.2635 145.41 -160.3 61.4577 51.3021 5.25428 -92.1353 306.139
17101 1 18.9178 -79.1917 -18.3117 -28.3075 -263.006 288.701 -254.055 -89.0666 -45.2639 -353.32 673.466
12320 2 19.8496 -79.1056 -19.612 59.914 82.4144 -175.037 178.417 24.4109 12.1055 -89.0953 398.396
29733 2 21.8282 -79.7374 -15.6734 14.1368 67.0176 -173.227 175.072 -34.9354 -14.6665 -87.1342 379.561
17695 2 19.6122 -79.8012 -17.0075 -28.8832 128.014 -122.931 162.232 28.0181 2.00871 -90.2593 359.92
14692 1 20.2359 -80.0833 -15.532 113.354 -226.254 275.927 -362.961 52.375 -11.6976 -357.247 775.136
29923 2 17.6727 -80.1035 -18.658 -65.9161 177.62 -151.674 62.3561 58.3687 21.9319 -92.1055 332.984
17553 2 19.6674 -81.4634 -14.8988 -166.28 143.871 -142.077 137.432 -19.6946 44.9031 -85.772 391.341
27064 1 17.349 -81.4944 -19.3783 281.347 -358.299 395.824 -59.905 -120.963 49.2199 -348.353 746.597
22053 2 18.7054 -82.2859 -19.4006 -191.987 193.151 -244.881 75.1537 41.853 -38.2846 -89.4855 445.08
17561 2 18.1492 -82.6393 -16.5215 -244.177 172.61 -125.495 40.6795 61.0678 55.7461 -88.8798 404.731
17390 1 18.6562 -82.6858 -14.8916 494.633 -342.415 228.381 -87.1459 9.78928 -125.274 -365.624 786.654
19586 1 22.9394 -78.6855 -16.0934 -90.5867 26.7125 244.31 -194.127 17.2932 38.6416 -346.175 452.84
27262 2 27.0236 -77.306 -16.4677 128.962 -121.424 -56.7631 -122.302 80.4511 -3.76383 -96.6361 339.141
24855 1 23.9716 -77.7431 -18.7879 -34.8521 149.571 117.951 1.42049 40.0109 -72.9245 -327.1 223.479
19875 1 27.8655 -78.2076 -15.4089 -255.016 225.231 97.4477 264.482 -189.168 43.5217 -345.692 713.083
22350 2 23.5659 -78.0374 -20.2595 -12.1313 -54.5565 -56.5222 17.4197 -45.0323 29.925 -101.243 107.553
24752 2 24.2254 -78.8902 -15.1392 98.7038 -58.6552 -106.614 15.8072 53.8153 -14.1096 -88.8741 211.291
22265 2 23.4732 -78.6817 -17.6635 18.8974 -28.5768 -115.646 60.6908 -20.2866 5.6327 -97.5612 162.322
9348 2 28.4828 -79.589 -15.8638 64.8151 -79.8055 -79.8648 -91.1818 101.293 -45.9824 -93.3981 288.08
17093 2 28.9019 -80.8075 -18.0943 -23.1488 9.02966 -112.421 -15.181 120.734 -28.7149 -85.2706 242.432
22246 2 29.2636 -77.4448 -14.9999 113.409 -102.321 -34.812 -95.1826 88.6506 -15.5034 -94.5134 296.665
27233 2 28.799 -80.3461 -20.8694 2.69376 -13.1658 -121.255 -17.0962 118.508 -22.9681 -86.7409 241.332
29562 2 29.3185 -82.051 -15.5439 -100.497 118.884 -193.565 40.2661 110.843 -4.45302 -80.1604 344.949
24582 2 28.9207 -78.4123 -19.1775 76.1507 -104.728 -39.9553 -61.7358 89.8273 -61.9446 -96.4068 268.977
7309 1 29.3851 -80.714 -16.5822 37.2275 52.7205 197.138 41.3034 -214.641 86.9687 -355.524 435.15
2197 1 34.9541 -80.5553 -15.4571 -83.9136 274.821 135.444 -18.8163 -134.241 -64.7327 -319.673 407.2
29813 2 31.7251 -77.9514 -15.9795 79.7779 -59.5316 -48.5284 -27.3307 117.248 -60.1987 -97.6511 268.978
27152 2 32.7679 -79.2827 -18.1299 47.9616 -106.008 5.46462 -45.3451 76.5792 -61.4851 -94.1138 232.535
9613 1 32.2922 -79.3931 -16.6379 -190.885 245.685 43.9926 81.1169 -258.84 78.1512 -337.645 618.286
29846 1 29.3647 -79.9555 -19.4128 -47.8651 131.95 144.87 86.988 -225.177 84.1037 -353.384 480.478
22061 2 33.5541 -79.9802 -15.8694 110.187 -140.95 -31.5379 -26.5202 125.079 -9.57074 -102.865 311.259
29487 1 32.4805 -79.8495 -19.6402 -67.354 184.169 96.5079 90.449 -86.467 121.366 -354.148 374.248
4949 2 30.94 -80.0533 -19.5503 30.5328 -91.9188 -71.7396 -34.8843 68.892 -43.8243 -90.2645 191.263
29615 2 30.9104 -80.2678 -16.6253 39.7113 -98.286 -61.3728 -24.4087 108.882 -39.4612 -95.5214 239.45
9634 2 33.4592 -81.139 -19.853 -17.1717 -57.1218 -109.042 -42.0491 54.0467 -15.4943 -84.1264 145.443
29557 1 34.547 -81.9477 -20.6342 144.402 4.21169 346.098 31.9457 -95.0099 2.92267 -381.383 344.642
24773 2 32.7851 -78.7701 -20.774 18.8617 -70.8976 -70.9414 -31.522 25.9094 -109.418 -90.2638 221.297
29732 2 35.0422 -77.6316 34.7049 16.6895 5.41629 -82.6574 -6.69042 36.8751 -104.988 -86.545 214.844
29766 2 -21.1274 -76.9009 -18.6273 -6.29676 6.96735 -44.604 16.7415 -19.5499 -120.872 -85.5016 219.018
22398 2 -20.5585 -76.8695 -16.1161 30.2559 -9.58996 -3.8112 7.4646 -73.9152 -81.287 -89.7658 194.348
29581 1 -22.0314 -76.8072 -19.9251 -31.0711 -21.0186 126.016 -43.6928 -34.3713 201.739 -369.319 393.148
9682 2 -23.5079 -76.2777 -19.8202 41.4811 18.0823 -71.7033 8.25058 49.1462 -83.5351 -83.2133 197.723
24865 1 -24.9089 -76.1675 -20.4833 -53.6157 5.3525 153.21 -25.5566 -102.535 148.481 -363.309 365.646
2300 2 -23.0093 -74.3924 -17.156 -63.7446 70.5037 -12.1696 5.68777 -10.7853 -113.808 -85.6417 230.35
29836 1 -23.3069 -74.2959 -15.6032 191.49 -224.199 54.5936 -26.9832 -62.2143 278.444 -357.676 617.269
29860 1 -20.7754 -74.1173 -20.4739 62.7639 -55.04 111.903 42.5225 77.3736 188.405 -369.098 389.814
4782 2 -21.511 -73.6195 -19.1983 -54.5472 57.642 -75.5517 -10.0604 -39.3617 -70.5912 -84.3821 187.843
29859 1 -22.3396 -73.0847 -18.0064 123.488 -131.812 98.2666 -22.2923 47.8637 148.38 -363.008 365.771
19985 2 -23.6675 -72.7476 -15.5502 -111.499 91.9977 -36.9233 35.8091 49.937 -101.29 -87.8007 271.853
27284 2 -21.4267 -72.259 -16.8987 -91.1219 70.4821 -53.0876 22.7639 -37.3017 -81.8329 -84.6935 217.335
20195 2 -23.6509 -72.1518 -18.4723 -54.5228 41.8616 -53.1983 60.2551 6.80812 -63.2432 -88.0441 179.428
29920 1 -24.6061 -71.4694 -15.2486 136.345 -137.798 85.4377 -51.9938 -151.957 122.391 -361.786 431.407
27656 2 -22.0216 -75.0544 -14.9397 -96.0835 99.3911 -6.21145 8.38319 -3.14396 -105.429 -89.7995 249.611
2022 2 -24.8445 -71.9812 -20.7595 -9.08154 25.6384 -46.8832 90.6897 24.6258 -49.3945 -86.5457 194.318
25118 1 -25.0486 -71.8356 -19.1718 36.2161 -102.611 108.615 -137.039 -59.3718 90.8883 -360.02 355.333
29879 2 -21.3158 -75.6154 -20.7991 0.595563 -5.01887 -54.6958 9.2306 -19.8023 -94.4532 -81.4239 175.996
29643 1 -20.6253 -70.8885 -16.8917 48.7402 -35.5184 79.2272 -84.9892 12.6738 99.8406 -364.296 250.307
27180 2 -24.4488 -75.0243 -14.879 -72.4558 114.31 -65.662 20.1811 97.102 -139.46 -92.7229 348.589
4727 2 -19.2314 -74.3668 -20.1233 -21.8848 17.3976 -85.196 -37.1416 -22.3365 -96.5449 -82.0664 204.05
5003 2 -16.4249 -77.0184 -15.9632 44.5732 -70.2657 -49.2099 -0.823878 -32.675 -52.1413 -90.8442 150.248
89 2 -14.7225 -76.8503 -17.9028 -58.952 -6.16246 -47.1747 -35.2276 -39.9378 -100.257 -90.1726 202.4
2286 2 -17.8992 -76.7365 -20.4179 12.8656 -67.3791 -26.0653 -21.8846 -20.245 -99.4487 -82.1538 192.788
7113 2 -18.8456 -76.0005 -18.1354 41.779 -31.3301 -76.7103 -20.2162 -24.3855 -134.481 -83.798 260.744
9782 1 -15.4249 -76.0633 -16.6292 76.2281 1.91217 89.0928 -4.9167 15.428 158.281 -358.781 287.384
9511 2 -14.3337 -75.7372 -15.5154 -53.8564 31.2025 -57.4503 51.5205 -4.77311 -17.255 -88.6497 128.368
27469 1 -18.1562 -75.4162 -19.4858 -61.8476 60.8154 175.607 43.8669 24.2486 225.916 -369.715 450.506
27245 2 -16.7856 -74.6703 -19.3059 18.3882 6.34013 -105.939 -8.681 2.20368 -94.437 -81.2614 202.732
27437 2 -15.8093 -74.6826 -17.2315 -39.375 58.5677 -61.9991 -3.13346 10.5873 -101.389 -80.8697 208.627
29673 2 -14.074 -74.2946 -19.2543 -56.2197 62.5026 -68.0241 12.0456 -45.15 -80.6576 -82.1574 204.214
4717 1 -15.558 -74.024 -18.673 72.7322 -152.852 194.088 0.724959 9.91881 180.169 -373.626 436.658
7398 2 -15.6359 -72.4038 -18.6038 -27.587 97.2715 -109.585 -1.83687 3.2955 -42.6868 -79.6812 195.092
27476 2 -13.0401 -71.6502 -15.2246 -134.971 108.928 -7.61706 -26.7733 -13.4399 -38.8537 -87.226 227.74
7203 1 -12.8518 -74.43 -20.3493 69.5315 -54.5675 78.7215 -16.6469 120.172 142.487 -369.507 348.839
12181 1 -10.3364 -76.6116 -15.432 101.478 -247.559 102.829 112.109 193.568 -19.9363 -350.855 523.072
14297 2 -12.4911 -76.0115 -20.5817 -20.0712 10.7153 -46.9127 -5.88602 -68.0979 -133.872 -84.0639 265.096
7658 1 -8.45431 -75.9732 -20.7012 -2.5469 -53.8574 117.753 12.5339 143.449 324.658 -355.999 633.79
4808 2 -9.90044 -75.8858 -16.7712 -66.7923 106.556 -30.8312 -42.2109 -119.571 -45.8723 -87.5921 282.239
2466 2 -9.11851 -75.3933 -19.345 -37.3633 59.6509 -29.6962 -29.9617 -98.3433 -104.99 -86.8935 271.114
7478 1 -8.82238 -75.2584 -17.7819 164.111 -186.514 42.9762 91.2828 279.672 142.642 -361.322 644.846
4428 2 -8.7628 -73.6896 -17.4149 -106.077 112.243 -4.75321 -36.2975 -143.285 -30.9115 -84.6751 322.832
11915 2 -11.709 -73.3536 -19.8928 -26.0837 66.9259 -37.2582 2.516 -58.5158 -28.0469 -82.7213 149.887
4620 2 -10.7745 -72.6963 -16.1296 -132.544 104.01 21.9814 -29.7431 -82.8454 -44.7368 -86.9101 269.315
4804 1 -9.6023 -72.2935 -17.138 188.607 -190.995 -44.9026 61.3563 215.773 87.3536 -363.89 532.769
12098 1 -11.1721 -71.7616 -19.8926 62.5505 -130.758 75.9958 47.16 151.2 -1.31021 -363.221 339.721
4856 2 -10.2866 -71.8212 -18.554 -68.6388 77.5889 -0.842888 -38.1342 -93.1378 -31.8552 -86.1226 222.477
17273 2 -11.8785 -76.2505 -14.9551 -13.7492 86.7891 -62.2349 -4.96457 -30.375 35.0495 -91.8573 154.469
14508 2 -7.36391 -76.0455 -17.5183 -70.8311 78.9069 -33.873 -14.1695 -143.238 -87.1671 -89.9231 321.25
12679 2 -12.309 -70.6345 -19.7596 -29.2341 28.9345 -52.2053 -9.62973 -38.4116 -7.62534 -87.9385 100.63
17361 2 -7.0844 -71.575 -14.8215 -58.9695 40.5994 7.93103 -16.0193 -110.677 -57.9788 -86.2699 235.225
14899 2 -2.5609 -77.0345 -19.0749 -11.1254 7.65325 -52.7167 -32.2568 -92.8094 -0.106746 -91.2937 178.398
11895 1 -5.93498 -76.8353 -17.4899 119.954 -151.205 60.1053 -76.0986 274.355 202.851 -351.517 653.844
14689 1 -3.90525 -76.7383 -19.8139 113.493 -73.0566 43.8185 55.7066 254.029 147.91 -345.422 543.316
12008 2 -2.41133 -75.8906 -15.8891 -25.5708 53.1174 -110.275 38.6294 -143.532 -5.41134 -84.6088 293.94
9792 2 -4.83382 -75.8815 -16.8105 -73.2032 62.3384 -37.3192 56.2238 -129.377 -38.2274 -88.9843 280.852
2135 2 -4.41896 -75.246 -20.1699 -68.5862 69.2717 0.63635 -15.1468 -100.509 -84.3105 -95.5672 258.018
17293 1 -3.71226 -74.9482 -16.1948 145.676 -159.291 115.612 -114.631 287.791 -28.7628 -361.339 612.466
9600 2 -3.09841 -73.8329 -17.1694 -79.8695 89.7778 -49.9622 39.4758 -88.9451 -0.382253 -88.9569 230.239
12195 1 -2.04729 -73.0196 -18.0243 236.491 -196.248 33.5146 -10.6839 87.292 15.7609 -351.084 405.677
2406 2 -2.68433 -72.6708 -19.4498 -89.9134 90.5767 14.0718 5.39995 -35.8333 -2.03051 -94.8951 169.036
17377 1 -2.2254 -72.2304 -20.8805 178.525 -147.165 -49.0522 11.5874 71.0771 -109.377 -334.59 367.688
17506 2 -1.21459 -71.8771 -17.2507 -125.284 43.7543 -6.26161 16.0529 -20.7298 21.1427 -92.044 161.32
7266 2 -5.68927 -72.9596 -20.8948 -17.9032 80.6505 -29.3149 -43.4574 -90.6936 -13.22 -95.7126 204.533
9975 1 -6.42688 -71.5127 -20.9375 13.3881 -76.8198 49.8342 119.86 150.118 -109.14 -344.837 398.991
12297 2 -7.00261 -75.2387 -20.8989 -16.0767 31.5084 -44.6364 -40.2031 -119.944 -145.824 -93.8449 340.942
17185 1 -5.56254 -74.5376 34.7598 74.79 -133.537 28.6021 102.919 252.082 192.969 -340.904 608.305
14316 2 0.064659 -76.9785 -15.2753 19.0707 -23.8783 -117.321 5.30971 -21.606 -23.3357 -76.3181 133.072
12272 2 2.75546 -76.7302 -19.8595 -42.6553 50.6775 -47.4042 -15.1188 -15.6909 46.1111 -87.7549 130.307
14597 2 -0.902848 -74.0418 -18.3982 -87.7093 114.734 -67.487 -54.7445 -41.7176 -13.2845 -90.032 228.123
14502 2 -0.163983 -76.4872 -18.2902 -22.833 4.44882 -105.496 -60.1509 -68.2955 49.3454 -89.0858 204.902
19907 2 2.2465 -76.4228 -16.9308 -5.77198 -37.6649 -106.182 -45.0879 0.0603259 52.4008 -82.4181 149.108
9577 1 1.33341 -76.0079 -15.5334 36.9534 48.9477 159.58 73.7647 -90.258 -88.0748 -376.074 278.828
7276 1 2.7092 -76.0102 -18.443 -38.4059 11.8057 183.105 21.0179 26.1615 -112.246 -365.531 285.731
19605 2 4.18363 -75.3043 -18.3851 57.1354 22.5253 -104.398 55.42 24.975 30.0963 -83.3582 188.422
12484 1 0.2506 -74.9501 -17.9144 63.6264 -125.396 217.722 147.34 68.4416 -70.9481 -359.796 427.648
12009 2 0.611698 -74.7711 -16.3484 -22.6824 40.6093 -120.109 -58.2329 6.205 76.5039 -83.6208 217.971
19781 2 1.66926 -74.8311 -18.743 15.1245 45.6714 -71.6274 -55.3262 -37.0094 23.3731 -84.4279 161.369
17095 2 0.931485 -71.0272 -15.6476 -33.1182 7.54016 -26.9311 0.244285 -9.30778 18.1809 -87.0575 51.8801
29717 2 -0.589847 -72.1089 -20.9256 -71.9715 64.6247 -8.66614 -30.3724 -23.3356 72.8927 -97.8953 185.364
14988 2 5.41945 -73.0454 -18.7628 3.1121 65.3516 -83.5664 18.7145 51.1418 12.3448 -89.3276 161.667
12294 2 8.88265 -76.6746 -19.568 -51.2627 127.787 -71.3114 28.8124 62.059 -28.5964 -92.3761 229.234
7179 1 8.11313 -76.185 -18.2316 121.625 -323.884 244.172 13.3752 -108.155 69.8253 -349.98 564.223
22365 2 6.76605 -75.2658 -18.4813 -28.9568 114.465 -117.761 7.8744 67.8015 -11.062 -90.2835 235.662
14770 2 9.06557 -75.1614 -17.4377 -36.473 138.915 -124.252 -22.1084 38.4614 -35.2874 -94.941 251.995
17392 1 5.48197 -74.4686 -18.0276 -31.249 -117.692 227.83 -101.087 -74.7991 -14.8762 -360.965 380.912
17195 2 5.53771 -74.1071 -16.4446 9.28448 25.194 -73.8628 19.548 -25.52 -6.8267 -84.9048 108.302
7496 2 10.467 -73.7109 -15.691 5.80622 106.478 -81.0561 -33.9041 41.6662 -32.1511 -91.9091 195.403
22285 1 9.34433 -73.6745 -16.832 3.72662 -235.806 226.105 68.2607 -64.8767 47.5703 -343.044 439.874
17208 2 7.89353 -73.2583 -16.2356 -66.4978 90.2042 -95.7348 -13.0179 7.42405 -27.3 -93.8144 181.388
19791 1 6.41365 -73.0223 -15.6465 74.8078 -74.7132 111.802 -6.70623 104.55 79.1243 -358.969 284.544
17207 2 7.53965 -72.9042 -20.2254 -59.3035 30.754 -21.6257 -11.0181 86.3785 35.8284 -97.73 180.93
9886 2 9.62039 -72.4889 -17.8948 8.9849 112.11 -158.474 -46.2415 33.8385 18.1845 -99.7834 258.434
17500 1 5.97018 -72.4083 -20.0706 58.6548 -110.753 72.9554 8.84386 -166.846 -75.2335 -346.775 363.393
17468 2 6.11568 -71.4533 -15.9083 15.1736 43.1003 -101.496 -21.715 -55.2382 -35.0759 -88.6625 178.631
17290 2 10.1108 -73.86 -20.5179 14.395 44.3277 -32.6305 -37.4769 68.4526 16.8709 -97.3369 153.752
19778 1 9.01283 -72.7206 -20.849 0.0928368 -33.661 14.3287 72.0407 -132.419 -81.9926 -339.95 300.275
12574 2 9.22371 -71.3468 -20.0701 2.49745 80.5659 -44.2521 -17.7445 50.6633 63.0989 -98.0526 180.331
14875 2 16.3261 -76.3107 -16.6445 5.69487 98.7961 -108.959 53.1781 83.4807 -50.3179 -96.6784 263.58
19885 1 12.9275 -75.611 -17.6035 -19.6996 -158.608 189.871 -53.9526 -122.67 70.9877 -337.715 401.647
20254 2 11.8324 -74.9607 -18.7141 18.8112 65.5899 -114.361 9.96083 52.1252 -8.54969 -99.9399 186.603
17367 1 16.5375 -75.0928 -15.6015 -34.6533 -132.684 155.2 -109.891 -150.871 92.14 -341.48 440.737
19893 2 12.5748 -75.0673 -16.1464 8.35511 69.6135 -86.3304 23.8775 50.2549 -51.6821 -94.885 189.258
22268 2 14.2993 -74.9182 -18.2309 9.83916 46.037 -126.761 12.7297 104.964 -8.96738 -101.44 242.27
19687 2 15.3281 -74.5049 -20.5331 32.9686 -14.6224 -35.2974 24.8015 92.4781 26.6837 -94.869 182.522
22215 1 11.895 -74.1237 -15.042 0.901774 -179.113 117.214 -7.33492 -60.1214 91.1909 -354.267 320.662
6975 1 11.6328 -74.0481 -20.0311 -37.7285 -98.2897 137.147 36.2881 -158.442 -11.423 -335.984 352.837
17285 2 15.3688 -74.0112 -15.4631 23.6892 62.8151 -79.9362 22.9747 82.4352 -10.4356 -95.9779 196.521
14894 1 15.3046 -73.927 -18.9937 -132.561 -54.5498 267.828 -51.453 -230.857 -18.9363 -334.692 551.421
24953 2 16.6924 -73.6292 -18.2643 115.883 5.36062 -165.324 30.7623 84.158 -5.02078 -100.384 290.474
14913 2 12.1244 -72.4963 -19.8041 15.3203 83.5261 -95.2932 -12.8332 71.7151 5.73107 -98.8211 201.131
19600 1 14.5364 -72.6305 -14.9151 -39.0559 -138.233 154.551 -9.08965 -182.012 -27.385 -348.171 410.371
7521 2 14.5297 -72.5064 -19.0812 19.9686 82.7252 -143.367 3.42573 119.78 3.38925 -99.2665 289.791
24685 1 13.3827 -71.5083 -19.5109 33.0574 -252.098 213.564 -0.963179 -184.502 32.0907 -339.287 520.177
19997 2 14.6881 -71.5383 -16.0546 25.2878 62.6673 -110.419 -19.2637 87.1565 35.7721 -97.1552 229.406
22386 2 13.0078 -73.0235 -14.8621 23.966 87.5864 -81.1592 2.98282 48.0264 -9.44389 -90.6805 170.296
24766 2 14.2705 -76.771 -20.8927 -74.4737 64.8435 -27.8342 -7.97794 82.5782 -0.95611 -94.7208 189.045
15333 2 12.7587 -74.5745 34.7468 -47.4578 26.2563 -10.0672 -5.91291 91.5489 16.7643 -98.187 173.687
14602 2 22.2914 -77.2188 -16.1324 -19.2924 13.3533 -94.3719 43.0869 -37.022 -7.2803 -101.6 137.819
27340 1 22.0245 -75.6651 -16.2291 -11.1835 -48.4174 123.08 38.2028 -11.9329 -52.5366 -324.121 193.644
19692 2 22.5358 -75.1859 -17.6926 -9.49093 2.28349 -68.511 -67.3273 11.2907 11.3439 -107.306 136.691
24801 2 20.5584 -74.9631 -15.9725 55.6283 2.63285 -67.3021 6.98945 20.5429 3.511 -102.948 113.381
24910 2 18.8319 -74.6613 -19.0453 116.435 -37.6924 -108.422 28.715 15.8891 -18.2943 -98.4561 209.51
22376 2 17.8563 -74.4498 -16.2683 77.0553 8.43706 -104.895 55.2505 57.168 -16.2748 -99.9359 212.335
22100 2 21.1706 -74.5502 -19.9076 23.647 -31.9991 -29.5498 -52.176 2.18006 -23.4061 -101.049 113.097
22371 1 19.6561 -74.2257 -20.33 -114.134 125.804 70.0544 -21.5268 -27.9418 0.419267 -341.723 225.909
17582 1 22.4475 -74.1461 -18.9982 31.6139 1.93613 47.3854 135.933 24.7489 50.236 -327.545 257.758
19876 1 18.1399 -73.9047 -17.7904 -241.729 48.5306 275.435 -69.3646 -90.6123 37.8107 -331.609 494.926
22393 1 19.9722 -73.4307 -15.8119 -101.092 18.9177 72.5858 12.6711 -97.9463 -49.2464 -329.66 245.481
14637 2 19.3595 -72.9998 -17.2945 52.6047 -16.0747 -94.4172 9.29755 53.5992 -10.3203 -102.926 159.475
24989 2 21.4404 -72.7816 -15.4867 -10.0525 29.4218 -36.5576 -14.8921 51.2504 37.0695 -102.797 126.391
17277 2 19.4302 -72.6448 -20.5028 14.5253 -30.1295 -56.8068 -2.68884 -1.64449 -19.7456 -94.9023 71.3896
17707 2 22.3069 -72.5718 -18.5143 -41.9547 60.7096 -43.7517 -8.87915 17.3957 -13.3809 -99.8774 111.396
27286 2 22.8161 -74.9018 -15.0098 -3.2794 -10.0841 -9.79879 -14.6585 46.7257 49.953 -103.795 121.346
24781 1 22.8558 -73.2625 -14.7924 18.9929 -31.081 64.2015 20.4193 -119.109 -104.69 -330.212 288.975
19968 2 25.1505 -76.8748 -18.2622 75.0725 -109.332 -51.8558 -52.324 3.41312 23.6918 -103.787 191.421
24771 1 28.5639 -76.8767 -19.6485 -193.814 155.608 82.1235 12.7811 -81.7115 158.296 -343.442 444.422
24577 1 26.4413 -76.1478 -17.4698 -215.618 167.714 104.683 135.353 -48.6343 -52.4515 -339.074 443.92
22354 2 27.7257 -76.0383 -18.523 114.615 -74.4434 -37.1783 -26.5445 4.05826 -32.7597 -93.6028 188.333
27059 2 25.9362 -74.7724 -16.9024 55.4509 -1.70295 -67.4913 -28.5286 16.7757 49.8467 -95.5041 148.643
25149 2 23.7172 -74.3228 -19.9931 -7.88646 -2.29107 -2.57374 -45.6534 -69.5129 -54.2045 -99.4068 172.026
2209 1 25.6398 -73.61 -15.7895 -34.1858 -103.856 158.506 -36.4981 -66.3295 -80.9995 -346.487 303.787
24823 2 24.1714 -72.9734 -15.6687 2.74844 55.7277 -71.2753 20.7158 54.2007 43.4294 -98.6502 167.233