ITEM: TIMESTEP
1220000
ITEM: NUMBER OF ATOMS
29952
ITEM: BOX BOUNDS pp pp pp
-2.5215326849417927e+01 3.5200621184295613e+01
-9.9949889758964005e+01 1.0993518410096401e+02
-2.0972667834995136e+01 3.4840520979710341e+01
ITEM: ATOMS id type x y z v_StrAtomXX v_StrAtomYY v_StrAtomZZ v_StrAtomXY v_StrAtomXZ v_StrAtomYZ c_PEAtom v_VMS
2506 2 -20.253 -87.8422 -20.6535 -162.01 49.1083 -169.063 -35.7941 -44.4401 -17.1938 -50.0552 238.254
115 2 -13.7401 -87.5511 -15.3576 -62.7999 124.143 -239.356 -54.4511 -66.3906 3.2088 -73.5758 348.244
2238 2 -8.37792 -88.9657 -16.7463 -247.572 294.907 -312.409 -5.78998 -24.6543 12.1252 -91.2032 579.677
14403 1 -8.20604 -88.9639 -15.1296 441.79 -575.299 745.674 26.4244 157.348 34.3308 -339.577 1231.18
9425 2 -2.11613 -89.1102 -17.1452 -59.5176 236.584 -220.787 -115.619 -209.021 -10.5046 -53.9074 577.009
22001 2 -4.52621 -89.2549 -16.0467 -275.396 287.303 -318.056 -100.693 -76.9248 -2.30367 -84.0536 625.012
9722 1 -3.33987 -88.2692 -16.725 245.911 -324.029 411.735 148.12 341.099 68.3764 -385.726 935.804
6733 1 -5.23451 -89.1431 -14.6925 538.1 -632.996 779.921 172.872 -4.30686 77.1077 -345.851 1349.33
19805 2 -6.75396 -89.4836 -14.6958 -292.83 366.382 -399.485 -43.3124 -38.2468 -45.9716 -95.3767 729.795
14659 2 3.65673 -88.5547 -20.6129 -437.278 271.731 -131.375 22.9752 134.685 -54.2147 -85.7015 666.486
14788 1 4.50833 -87.5755 -19.5024 761.635 -375.547 205.541 -92.4811 -309.935 110.655 -359.524 1149.18
12190 2 5.29685 -87.5004 -18.0513 -357.358 188.291 -95.8399 79.1615 157.394 -37.2135 -82.8403 566.303
24691 2 7.87356 -87.6079 -18.0583 -151.443 269.919 -181.444 81.3133 88.9098 -13.5622 -70.6537 484.963
27352 1 16.4312 -88.5416 -18.5461 520.771 -576.971 716.003 -7.10153 -131.092 -0.723695 -377.411 1228.48
29483 2 14.8874 -88.3387 -18.3606 -174.777 295.269 -351.671 -12.4328 65.6177 -8.94543 -72.4992 590.765
24561 2 17.2733 -89.2469 -17.4192 -337.23 343.272 -357.793 11.5848 44.435 -10.01 -74.8648 695.792
12203 2 17.4755 -88.7534 -19.798 -309.466 312.974 -340.052 4.29613 47.762 35.6369 -73.6881 646.617
14324 2 19.4382 -88.8451 -18.3665 -237.383 296.649 -381.638 -40.9055 4.17642 0.739967 -71.5955 622.985
24554 1 18.6714 -88.6823 -16.9669 622.298 -578.992 629.162 34.3232 -86.3461 3.70656 -380.921 1215.46
27166 2 19.2621 -88.6205 -15.5215 -299.845 293.011 -273.255 -27.026 33.8769 -7.46418 -70.1296 584.998
14979 1 18.9707 -88.1982 -19.8073 486.832 -538.934 691.976 1.81811 40.8969 11.1281 -387.208 1144.6
29760 2 35.0522 -87.9713 -19.9747 -236.011 185.509 -245.827 31.5303 50.4727 -25.3011 -59.1752 440.974
27158 1 -23.7715 -87.5336 -19.8937 480.207 -171.798 376.813 -9.2812 -50.7862 28.0195 -404.373 615.418
29564 2 -23.2875 -86.8349 -18.4667 -205.377 7.62508 -70.7934 2.16148 36.9125 -7.42119 -74.4431 197.694
29595 1 -20.0139 -86.2871 -20.411 166.832 160.311 151.839 -5.13139 67.1237 13.2443 -408.71 119.547
9397 1 -23.3422 -85.3661 -17.76 241.514 174.369 -34.8031 -5.11836 -53.5315 51.7803 -365.485 281.114
22195 2 -24.6763 -85.2642 -16.7285 -80.9496 -79.5324 -0.899896 -38.3237 44.9652 -20.4896 -89.1133 134.267
1999 2 -22.0487 -85.1709 -16.7572 -81.6891 -78.9165 -19.5887 21.8361 -1.5751 -55.1129 -87.382 119.34
4705 1 -21.7309 -85.0982 -15.2579 22.8885 43.6494 228.719 25.7802 9.66071 113.435 -346.967 281.781
24862 2 -23.1646 -84.4144 -19.0857 -91.377 -37.1171 -23.0037 19.0752 33.6724 -75.0589 -80.6894 159.071
2392 1 -22.5277 -84.4532 -20.5425 146.105 50.2039 91.0431 -36.7428 1.38327 166.439 -383.591 306.774
2417 2 -21.7191 -82.9854 -20.3974 -53.2295 17.1891 -49.7459 40.9033 3.08275 -89.7105 -74.5352 184.166
29762 1 -19.753 -81.7313 -17.5134 25.3663 -0.544585 123.69 30.3675 94.1362 264.851 -377.952 502.669
24846 2 -21.4347 -85.6204 -20.6894 -93.7861 -76.0727 -75.4215 15.629 -39.6941 -36.5017 -70.5014 98.9064
4724 2 -19.4878 -85.7181 -19.0103 -14.8514 -88.8316 -94.7136 11.3082 -8.2377 -20.9706 -68.3312 88.5964
7277 2 -19.352 -83.3003 -17.6145 24.1333 -35.7527 -89.7604 14.5358 -28.8917 -116.436 -78.6847 231.404
4915 2 -22.7521 -84.0275 -14.7218 -48.4495 69.6782 -128.936 -16.8476 1.01693 4.20679 -97.9246 175.635
27175 2 -20.2688 -84.6819 -14.5915 47.9912 -31.4093 -147.542 0.851063 -6.33473 -70.3948 -90.1439 209.764
2338 2 -24.3376 -86.1445 -20.6462 -139.605 -38.4858 -122.577 -28.9299 39.1953 -50.9481 -74.5425 153.948
14593 1 -13.8728 -86.628 -16.7492 125.89 -118.146 393.423 155.108 84.0105 59.0697 -378.446 547.934
12108 2 -15.142 -86.1405 -17.6435 -28.802 16.5766 -205.81 -60.9792 -35.9497 -40.7327 -74.5861 247.857
4793 2 -18.7842 -85.4653 -16.3936 32.8367 -89.8043 -116.87 25.4236 -54.5678 -69.6761 -77.4621 211.019
7105 1 -15.7212 -84.9696 -18.679 2.52775 77.8386 253.317 99.8529 43.0732 127.273 -383.615 365.722
7595 2 -15.6763 -84.8338 -20.2932 -44.7901 -29.5636 -67.735 -42.9176 18.3387 -64.8097 -71.0166 142.279
4623 1 -18.7823 -84.8655 -17.8797 -95.6936 194.054 209.352 -25.3405 56.5501 127.95 -385.598 386.334
4783 2 -17.1911 -84.719 -18.1762 71.7893 -81.3092 -127.389 -12.8425 -30.8404 -64.9887 -74.2086 220.536
4603 2 -14.7698 -83.7487 -18.2278 -61.6278 -22.8708 -86.2928 -64.9529 -34.5469 -86.6839 -83.5999 204.563
14608 1 -13.5434 -83.8089 -15.4237 7.91238 -29.4279 162.122 156.009 72.312 23.0897 -358.76 348.19
27147 1 -13.6726 -82.5706 -18.0044 152.81 -54.0566 102.485 121.448 78.9134 189.678 -364.814 453.629
5003 2 -16.5014 -81.7017 -16.0098 20.2084 -58.5157 -57.2502 -14.823 -29.4039 -93.6266 -80.6787 188.813
7678 2 -15.053 -83.5982 -15.0024 -17.1862 -42.9745 -53.9136 -30.2621 -70.5954 -26.7654 -86.6856 144.618
14605 1 -18.7371 -85.0658 -14.8598 -162.901 156.245 232.243 -76.8869 49.4279 148.594 -367.204 472.429
9297 2 -13.3398 -85.2473 -16.0657 -15.7953 6.80621 -128.654 -105.594 -39.8158 -25.5465 -86.6081 236.564
4514 1 -16.4717 -82.7954 -14.8231 -67.6358 150.33 81.7501 -25.1515 104.26 87.5422 -367.484 307.836
12281 2 -17.7009 -83.7886 -14.739 90.1364 -94.7819 -71.051 42.2078 -33.5019 -52.3201 -83.1057 217.471
4491 1 -7.82832 -87.5648 -17.297 435 -329.497 408.411 98.0339 73.9132 121.122 -334.123 808.745
29685 2 -12.884 -85.7884 -20.343 -138.246 26.1432 -145.014 -67.6493 48.5697 -75.0454 -76.0758 256.679
29840 2 -13.0958 -82.8534 -16.5511 -22.926 30.8423 -63.7596 -53.4525 -14.9483 -40.9384 -86.5206 144.995
2181 2 -11.5678 -87.402 -20.4926 -215.775 152.838 -237.464 -45.8624 60.5025 -5.14087 -66.4035 402.134
9403 2 -7.67399 -87.1415 -15.6089 -183.628 170.464 -260.097 -63.5931 -55.6867 -25.4759 -111.041 426.249
6935 2 -12.8151 -87.1682 -17.9064 -92.3884 87.7684 -219.638 -71.4934 -7.99638 -31.4398 -76.1509 300.108
9692 2 -8.83061 -86.5838 -17.9592 -103.378 102.585 -176.02 -73.7612 7.24442 -99.7655 -95.0388 330.148
4791 1 -12.0271 -86.5603 -19.2032 197.901 -103.071 379.19 135.761 -69.076 124.284 -378.232 542.181
14601 2 -10.9944 -85.4667 -18.6438 -5.30996 23.1188 -147.528 -70.6354 25.1168 -106.947 -86.3769 276.136
17077 1 -9.59901 -85.125 -18.1242 49.4135 -144.152 226.789 130.562 -22.8005 251.095 -350.66 587.459
16980 2 -9.45142 -84.6158 -16.6289 -40.403 128.673 -116.526 -90.1254 -48.2949 -41.6704 -96.7599 289.527
9608 2 -8.83974 -84.2177 -19.1517 -59.9983 100.814 -102.946 -18.6801 -34.4241 -192.638 -88.9429 387.997
6903 1 -9.26614 -83.8546 -15.2663 137.57 -341.903 246.369 203.419 238.71 -44.1674 -338.682 771.256
4600 1 -8.17478 -83.5665 -20.5194 48.6868 -177.441 298.469 -14.8665 128.64 429.168 -363.719 879.131
12377 2 -9.90345 -82.4045 -15.4599 -75.348 162.923 -79.6088 -71.6424 -107.627 -2.59927 -91.957 328.596
7304 2 -12.5027 -82.4542 -19.0767 -28.8483 47.2067 -60.2168 -52.3807 -42.9683 -124.538 -83.1332 263.54
7270 2 -8.14687 -81.9823 -20.4089 1.63075 68.9627 -110.583 14.2009 -63.3588 -170.283 -88.439 352.588
7190 1 -12.6092 -82.0879 -20.6244 74.7858 -75.3066 190.844 70.0393 71.4366 281.482 -369.587 566.691
6996 2 -7.71299 -83.6315 -14.833 -108.003 216.078 -134.827 -75.6811 -127.805 10.3558 -100.425 425.379
7030 2 -3.05829 -87.4927 -15.3586 -70.3615 112.157 -284.236 -21.1921 -74.2392 -41.9592 -82.9713 375.839
4962 2 -6.37173 -87.2344 -17.8906 -271.78 121.011 -127.185 -44.4155 -134.966 -90.228 -97.0513 450.983
9226 2 -3.92275 -87.2997 -17.8567 -170.854 114.184 -110.451 -3.51288 -235.891 -92.6484 -79.5441 510.294
7010 1 -5.08918 -86.6469 -18.6732 444.976 -265.771 183.31 -23.4404 472.458 275.69 -361.518 1134.44
7577 2 -5.27743 -86.5944 -20.3162 -235.17 172.517 -131.133 -1.41748 -270.78 -98.549 -76.7284 619.456
14603 2 -6.00049 -85.0694 -15.5682 -177.273 226.648 -164.6 7.3485 -63.3789 -58.8834 -105.722 425.216
19013 2 -4.87773 -85.0291 -18.9671 -161.238 166.446 -74.2957 73.782 -237.855 -184.551 -87.5823 612.111
14595 1 -6.17599 -83.4188 -15.3292 263.039 -467.762 265.195 -63.7544 193.207 134.424 -338.604 845.009
19399 2 -1.45524 -82.5063 -17.0248 -5.24891 21.3958 -90.6606 55.7764 -125.111 -71.8368 -85.4781 286.45
12381 2 -6.21303 -82.345 -16.5318 -116.065 170.641 -76.6276 48.5914 -146.161 -139.535 -93.677 449.479
12112 1 -1.31226 -81.6967 -15.565 -64.8101 21.59 200.459 -151.651 229.211 159.169 -367.976 597.934
12384 2 -5.18343 -81.7151 -18.8925 -75.8232 67.5953 -11.5405 50.1567 -167.624 -123.412 -95.4945 391.17
12208 1 -1.1742 -82.0436 -18.5503 -1.63841 15.8504 90.8558 10.312 166.723 -9.73071 -349.846 302.053
14899 2 -2.54662 -81.341 -19.0351 -11.4543 -10.2729 -8.72845 -1.44268 -75.632 -37.7699 -97.4654 146.465
2199 1 -6.61587 -86.2479 -14.7516 340.297 -371.716 428.738 92.1595 99.075 -36.5679 -310.525 797.931
10070 1 -5.3574 -84.9641 -20.4942 304.015 -301.083 284.752 -61.5472 500.165 355.736 -365.937 1223.26
7303 2 -6.73287 -84.1951 -20.5967 -80.3171 122.904 -169.351 16.9236 -169.895 -198.843 -86.2235 522.864
24956 2 3.32641 -86.4502 -19.4638 -276.849 147.209 -81.2126 -36.0486 82.8604 -19.1064 -87.7059 400.91
14763 1 2.93654 -85.585 -20.8154 459.921 -371.19 188.045 158.777 -125.375 -10.3868 -346.493 813.519
16880 2 1.60103 -84.7118 -20.482 -132.9 182.187 -111.652 -157.967 -30.7718 44.3276 -88.6167 420.277
17158 2 -0.586618 -83.1322 -19.6201 -33.8624 55.4347 -65.8383 -64.2552 -110.511 32.3568 -89.3008 253.016
14316 2 0.259198 -81.5467 -15.3457 17.5492 -32.3752 -89.7913 47.6927 -17.6946 -42.6796 -81.7728 147.93
12172 1 0.354043 -83.6727 -20.7977 136.28 -233.46 161.993 263.459 172.32 -109.731 -351.803 693.047
17246 1 6.65428 -87.2415 -17.2361 563.436 -429.138 291.051 -234.075 -289.885 24.1032 -374.098 1098.75
12103 2 5.62893 -86.9488 -20.4928 -268.936 158.373 -112.929 91.0686 142.62 -46.2125 -88.6043 482.263
9595 2 6.94771 -86.7167 -15.787 -263.308 201.554 -167.099 127.211 108.326 5.80992 -82.8674 514.278
24673 1 10.8736 -86.0834 -19.904 88.7935 -189.689 475.224 14.8684 -161.946 -53.2534 -379.12 649.881
15225 2 9.44232 -85.7997 -20.4655 -16.3084 76.2533 -203.9 44.459 106.47 24.198 -78.4243 320.649
15052 1 7.69312 -85.5039 -14.9357 401.741 -217.61 220.601 -186.202 -101.279 -21.5563 -354.066 663.625
17105 2 7.87877 -84.3935 -16.1515 -160.905 64.2991 -66.9558 90.0208 45.2449 -20.7554 -94.6781 264.822
14500 1 8.4646 -84.5795 -20.1833 78.8244 -68.7159 170.82 -213.363 -262.245 5.7916 -359.682 621.927
14878 2 8.50009 -84.2507 -18.619 -83.3467 30.6719 -109.924 105.553 49.3968 17.5338 -91.5725 241.668
17365 1 8.63374 -83.3854 -17.2375 225.078 -155.646 103.815 -97.0461 -59.9391 89.6114 -343.316 420.251
15104 2 9.85618 -83.0653 -16.2789 -68.1324 59.2231 -60.367 28.8952 7.96621 -50.7409 -95.5385 160.343
17074 2 8.14767 -81.93 -17.687 -111.072 164.911 -88.1989 -5.90387 32.1849 -43.216 -95.8264 281.411
19670 1 10.0437 -81.9839 -20.3924 80.8072 -203.413 117.263 -93.1201 -124.238 83.3368 -349.236 430.843
22569 2 6.92936 -84.7886 -20.5946 -91.1715 64.9208 -61.5136 148.577 144.928 -24.5893 -89.1283 389.444
17213 2 10.9491 -86.2134 -18.2941 -36.4651 99.3159 -200.022 -11.9679 24.0716 -14.3039 -78.1527 264.91
17462 1 10.0304 -82.7819 -14.7442 94.2157 -100.146 113.572 -88.1417 -39.9183 55.4136 -346.721 281.447
22686 2 10.9857 -82.5666 -19.1961 -17.4349 83.8472 -141.283 3.49014 21.7279 -55.0219 -94.3537 220.625
12596 2 16.4027 -86.8418 -18.6645 -155.492 179.491 -289.541 -39.8133 60.2283 -28.9588 -89.0665 439.592
17179 2 13.1227 -86.8457 -17.2462 -55.4711 148.244 -225.331 -54.0851 27.5108 -31.1554 -75.4941 344.838
21987 1 14.5645 -86.7496 -18.0309 131.471 -300.575 497.671 158.765 -120.952 29.8524 -369.251 775.346
19757 2 14.0846 -85.9576 -19.3793 -38.2595 105.914 -247.123 -70.0481 85.3657 -28.1946 -85.3466 365.362
14786 1 11.9199 -85.8355 -17.0367 20.3591 -111.438 308.718 83.9574 -21.1816 63.8722 -372.249 416.243
14433 2 11.416 -85.8618 -15.5375 -11.1294 65.4063 -160.618 -30.7407 14.313 -43.4805 -79.6497 220.832
24852 2 15.1571 -85.7063 -16.797 -78.8347 97.6405 -147.98 -77.306 38.0465 -5.49661 -87.792 265.498
16902 2 11.8838 -84.8285 -20.2907 -26.7819 53.065 -189.308 -17.4229 63.5897 -23.1128 -86.2583 245.788
14524 1 15.4507 -84.4121 -15.872 110.235 -186.411 166.723 53.0641 -92.2823 28.45 -356.28 379.961
27090 2 12.2188 -84.272 -17.4693 18.5372 43.8018 -142.481 -31.0194 31.1948 -29.5874 -90.1207 197.65
17088 2 14.3521 -83.5678 -15.0927 -20.1664 61.1002 -77.3158 -24.7572 42.5078 -31.0823 -87.7626 157.075
22266 2 16.2615 -83.2997 -16.7125 -52.8993 137.275 -120.085 -11.1223 51.3298 -25.7398 -90.8616 252.428
12212 2 13.6587 -83.1128 -19.387 -21.2815 142.017 -186.903 -8.24155 66.2593 -53.6748 -92.8623 321.186
12304 1 12.4095 -83.0013 -18.4332 -43.5655 -239.58 312.139 -9.21228 -67.186 91.2804 -348.492 522.938
19393 1 14.7787 -82.1989 -20.1689 103.98 -269.348 236.173 55.7269 -126.908 98.7477 -350.199 541.375
24850 2 15.9446 -81.828 -19.0451 -11.2257 143.205 -156.437 -26.8064 85.9402 -35.6083 -91.8354 308.994
22084 1 16.667 -82.0141 -17.5538 22.6608 -367.437 309.938 -7.28932 -153.241 18.7791 -353.545 646.867
7206 2 12.8282 -81.5364 -17.8338 16.5566 139.154 -134.821 17.41 34.3354 -42.7595 -94.1042 257.75
14409 2 12.0423 -86.9692 -20.666 -120.27 183.39 -266.775 -7.44452 101.834 53.5998 -69.8227 445.036
17544 2 17.0826 -85.2541 -20.7192 -87.9248 94.1026 -205.974 -0.845749 68.4038 -94.8327 -85.8351 331.024
19868 2 16.257 -84.9459 -14.5299 -108.603 59.0404 -95.8233 -14.8994 32.2088 9.22755 -88.052 173.663
17561 2 18.1979 -87.0968 -16.6282 -254.507 166.936 -206.847 35.0853 48.9006 8.3385 -87.1745 413.37
22053 2 18.6956 -86.7336 -19.3882 -181.388 189.425 -289.426 58.9719 -4.16751 -58.0177 -85.4594 458.061
27064 1 17.4345 -85.7801 -19.2362 250.873 -323.81 477.687 -32.6994 -65.2318 116.431 -352.688 754.118
29923 2 17.8418 -84.3849 -18.5861 -55.4445 137.363 -196.529 43.1393 33.2912 -24.0463 -91.5213 308.098
14692 1 20.4218 -84.5027 -15.5804 81.4894 -158.511 339.75 -364.399 28.2675 -31.4414 -367.918 768.117
17695 2 19.8446 -84.0243 -16.9871 2.83249 84.3801 -165.561 163.477 15.5977 -6.37395 -87.2012 360.228
29733 2 21.9934 -84.0925 -15.6983 39.9296 25.7882 -203.521 167.825 -27.5966 -1.88123 -80.7057 377.91
17101 1 19.0269 -83.4264 -18.2379 -60.9055 -223.076 356.532 -203.549 -42.7635 1.92976 -357.991 630.907
12320 2 20.0851 -83.4996 -19.5034 82.0531 49.2207 -212.012 158.393 -8.57808 -23.4524 -85.8572 393.743
17081 2 18.2796 -82.0782 -17.8306 54.0712 149.507 -192.988 42.2848 36.3452 -9.27444 -87.8091 321.418
14602 2 22.3057 -81.4691 -16.135 1.38999 27.4546 -99.3109 54.0204 -32.1251 13.2895 -92.6372 160.702
19586 1 23.0149 -82.9038 -16.0287 -81.2325 76.2002 261.206 -175.404 36.974 9.42171 -359.212 429.89
17553 2 19.9031 -85.9935 -15.1375 -153.512 143.475 -194.105 121.673 2.71507 30.8606 -79.9639 386.26
17390 1 18.7466 -87.0839 -15.1042 536.393 -360.7 332.71 -78.9046 -26.8269 -73.158 -372.781 836.918
2429 2 19.846 -83.465 -14.4985 -68.0324 49.1678 -88.4031 154.388 -18.6915 26.5762 -85.5559 302.014
9348 2 28.3644 -84.0346 -16.243 6.48411 -40.2575 -94.315 -84.471 116.868 -71.1077 -85.2005 291.861
22265 2 23.624 -82.9378 -17.5974 5.22389 -46.6942 -137.493 50.6067 -29.0929 -9.26385 -92.372 161.66
24752 2 24.2995 -82.8566 -14.9223 69.7922 -84.4188 -88.1076 -7.61047 54.3118 11.7095 -83.6884 183.842
22350 2 23.9301 -82.8812 -20.2707 -24.7735 -42.2962 -111.565 34.1132 -46.6762 7.4313 -95.35 128.499
19875 1 27.9161 -82.726 -15.5375 -127.873 141.876 102.483 209.04 -218.087 82.7119 -361.719 598.326
24855 1 24.2643 -82.3138 -18.8648 16.036 140.001 187.439 -15.7583 39.3149 -14.5253 -339.05 171.794
27262 2 27.0736 -81.6557 -16.4059 67.0985 -81.1068 -61.704 -90.6538 90.6883 -14.7096 -89.2734 263.519
17093 2 28.9297 -85.4021 -18.2595 -78.4245 45.1852 -145.37 -21.4789 119.415 -59.433 -76.7138 287.744
24582 2 29.2217 -82.8871 -19.1318 -3.72785 -69.6075 -69.6263 -53.5319 83.7044 -76.8269 -89.4885 227.299
19968 2 25.4675 -81.3826 -18.3904 23.1955 -94.1718 -81.9791 -17.9892 0.612224 13.1212 -97.7924 118.242
29562 2 29.0464 -86.56 -15.647 -145.434 115.697 -224.274 7.43017 125.642 -24.4493 -72.632 379.882
22246 2 29.2631 -81.9193 -15.298 45.5319 -62.3308 -33.8858 -63.1316 112.422 -38.0105 -86.2668 252.156
7309 1 29.2625 -85.3501 -16.7171 148.334 -38.762 237.001 48.8631 -226.554 126.313 -375.148 518.135
9634 2 33.4611 -85.7878 -19.8775 -66.9113 -28.9561 -125.5 -58.9088 38.9715 -50.6713 -74.9098 172.531
2197 1 34.8758 -85.3329 -15.3806 51.811 74.7217 192.55 92.3496 -97.99 41.5233 -346.051 276.897
29615 2 30.7763 -84.9152 -16.6174 -13.4897 -49.7001 -87.1702 -25.3021 108.975 -63.2078 -83.8134 231.527
22061 2 33.3422 -84.86 -15.8304 8.30279 -66.0634 -60.0197 -43.6813 99.2048 -38.4454 -89.118 211.661
4949 2 30.9282 -84.927 -19.8111 -0.0515592 -40.6878 -120.796 -53.3478 49.2201 -61.0206 -78.3884 195.704
29487 1 32.4511 -84.5333 -19.6876 -7.61413 132.237 157.235 137.967 -45.9478 143.675 -374.497 386.064
29846 1 29.3891 -84.5158 -19.553 35.2641 62.3017 215.628 84.3487 -190.767 128.933 -370.208 456.921
27152 2 32.588 -83.9863 -18.1592 11.7674 -82.0852 -16.0615 -62.8679 74.8592 -61.892 -82.9225 217.098
9613 1 32.1696 -84.0868 -16.5899 -61.3942 131.273 70.1656 103.105 -245.847 122.657 -361.772 536.125
29813 2 31.6529 -82.7163 -16.0104 19.0309 -70.9136 -61.0728 -4.41906 117.744 -38.8509 -88.1107 231.255
19777 1 30.8436 -81.5761 -15.2563 -85.7359 79.9002 104.295 34.4379 -210.393 137.992 -362.087 474.921
29557 1 34.528 -86.5569 -20.7834 297.733 -48.2096 369.116 67.9589 -104.276 90.0909 -393.997 469.352
24773 2 32.8465 -83.4969 -20.8045 -6.71647 -14.9297 -112.07 -52.7315 12.4966 -100.837 -82.0935 222.747
29581 1 -21.8358 -81.518 -19.8533 74.2318 -66.3353 141.392 -50.9452 -11.9634 182.993 -381.905 377.34
29766 2 -21.0675 -81.582 -18.4407 -68.3031 34.6359 -55.9772 1.03511 -27.1032 -117.875 -78.548 231.02
22398 2 -20.2338 -81.2402 -16.0096 -17.1747 9.89115 -27.7901 -36.1109 -65.5614 -85.4754 -79.7844 199.644
9682 2 -23.398 -81.0546 -19.9821 -40.427 25.6977 -66.3242 23.8433 35.5159 -59.8302 -77.0832 151.605
24865 1 -24.8253 -80.82 -20.6063 41.2753 -65.7503 122.375 -12.8833 -107.874 100.864 -376.256 304.369
2300 2 -22.9874 -79.0286 -17.1635 -93.4257 48.8168 -19.0487 -20.3289 -14.4259 -123.725 -84.209 250.944
29860 1 -20.7456 -78.8198 -20.5091 66.7871 -18.777 97.683 49.0666 118.94 171.536 -375.009 385.818
29836 1 -23.1435 -78.7739 -15.5565 278.916 -156.163 50.7197 -4.77418 -52.9946 313.704 -360.33 667.688
4782 2 -21.6939 -78.2782 -19.321 -40.7007 36.0932 -62.5824 -31.4639 -60.9363 -68.6751 -81.8531 190.565
29859 1 -22.4327 -77.7082 -18.0085 139.045 -83.9995 100.392 18.5592 64.6218 172.338 -364.472 381.162
19985 2 -23.7386 -77.2425 -15.7359 -143.709 77.237 -40.881 20.2202 53.7673 -123.412 -87.947 303.747
27284 2 -21.3464 -76.9704 -17.0448 -72.8904 56.4764 -53.3465 16.0576 -43.9077 -91.1968 -83.5077 214.703
20195 2 -23.5783 -76.6695 -18.5105 -54.1923 36.3549 -43.1564 15.1047 15.6169 -84.3358 -88.5235 173.421
29920 1 -24.6053 -75.9743 -15.4642 200.334 -161.325 103.112 -13.8725 -162.371 165.486 -362.135 516.639
29643 1 -20.605 -75.5437 -17.0368 58.3387 -10.3982 95.4181 -66.8323 55.3088 103.741 -366.401 252.015
27656 2 -21.6874 -79.2341 -14.927 -115.839 47.501 8.05822 -14.5654 7.75228 -119.088 -84.2085 255.256
4727 2 -19.2082 -78.8772 -19.9522 -20.1896 5.79858 -80.9547 -36.2441 -47.1158 -91.9311 -79.7807 204.699
22477 1 -20.9166 -80.6408 -14.694 88.7134 -40.4889 12.0024 41.0661 47.8598 116.613 -367.296 255.721
25118 1 -24.9962 -76.3497 -19.1828 111.043 -68.1586 71.129 -76.0485 -68.609 123.278 -357.478 321.897
27180 2 -24.1865 -79.5751 -14.6596 -123.694 55.7949 -33.6799 39.2933 70.5381 -158.99 -90.3968 345.766
2022 2 -24.9115 -76.2823 -20.793 -40.7793 -3.72522 -24.5035 59.7596 23.0417 -41.0832 -87.6212 135.664
2286 2 -18.1695 -81.1801 -20.5443 -12.9843 -52.6851 -32.574 -29.0246 -31.6166 -102.521 -77.0835 195.551
89 2 -14.6085 -81.3155 -17.8096 -88.13 10.4615 -50.6574 -33.4438 -23.3726 -119.238 -83.593 234.685
7113 2 -18.6047 -80.7306 -18.0756 28.1646 -42.368 -87.0144 -31.7561 -33.999 -150.166 -77.1946 290.275
9511 2 -14.2397 -80.4573 -15.415 -58.5255 0.0153784 -38.4513 36.1655 3.91743 -43.6328 -81.7148 111.068
9782 1 -15.3791 -80.6459 -16.608 120.431 12.8392 89.9661 25.1555 9.66665 226.23 -373.787 406.135
27469 1 -18.133 -79.994 -19.4851 -45.2572 70.2299 171.123 68.9521 55.0056 228.33 -377.81 463.587
27245 2 -16.7746 -79.2684 -19.2414 9.79484 -1.24442 -104.327 -30.2725 2.70965 -102.149 -78.9939 214.384
27437 2 -15.6799 -79.1515 -17.0695 -50.309 32.9963 -61.671 -29.0152 6.03837 -116.073 -75.8961 225.985
29673 2 -14.2118 -78.7 -19.2991 -48.9108 35.5534 -100.592 -14.6173 -6.13796 -71.1336 -81.9455 173.506
4717 1 -15.5923 -78.4494 -18.5429 61.6389 -94.8011 217.261 57.5772 -7.47373 185.404 -377.201 431.595
7398 2 -16.0186 -76.8853 -18.5912 -0.0659699 48.5982 -115.446 -42.5382 2.57224 -40.1646 -78.8261 177.718
9903 1 -16.2918 -75.4406 -19.2146 -70.8136 76.7572 135.788 60.5493 2.27595 26.1768 -369.854 216.894
192 2 -16.9773 -75.6341 -20.6458 27.4938 -54.1452 -41.6808 -18.6243 0.656269 -33.275 -83.9838 100.828
27476 2 -13.1346 -76.173 -14.9935 -101.72 61.127 -6.38976 -92.0176 2.49384 -30.74 -81.8419 219.859
12181 1 -10.2136 -80.8622 -15.3585 219.533 -257.727 62.058 89.959 204.208 51.3487 -355.115 578.541
17273 2 -11.759 -80.7186 -15.0384 -71.0228 71.8645 -47.3807 23.1854 -34.1174 -13.1965 -87.7229 152.396
4808 2 -9.60932 -80.2724 -16.7345 -95.718 101.152 -11.2124 -52.6494 -117.039 -61.5344 -86.7239 300.054
2466 2 -9.07357 -79.8643 -19.3539 -9.84241 47.9242 -21.869 -44.6776 -76.6644 -86.1873 -86.4846 223.789
7203 1 -13.0113 -78.8917 -20.3339 61.4863 -42.1006 136.968 17.2706 46.9683 117.071 -368.026 269.955
7478 1 -8.62031 -79.5243 -17.7926 160.589 -131.338 -6.21708 138.716 272.861 136.94 -359.803 633.793
4428 2 -8.87124 -77.9973 -17.4979 -107.449 60.8712 21.5931 -65.6891 -122.158 -51.9038 -87.5898 298.426
11915 2 -11.7729 -77.9924 -19.8118 -7.04787 40.7364 -60.3827 -8.35402 -21.2463 -32.4404 -83.9797 111.343
4620 2 -10.9808 -77.1546 -16.0586 -144.358 63.6427 22.8408 -56.3567 -46.1287 -70.6625 -87.3812 259.487
4804 1 -9.75917 -76.7379 -17.0627 198.535 -100.752 -76.8467 118.828 138.142 133.999 -358.889 486.278
12098 1 -11.3879 -76.425 -19.7613 25.4221 -74.6712 104.035 65.1728 75.9597 42.1209 -361.12 243.807
4856 2 -10.4376 -76.2618 -18.4698 -56.3012 44.6951 7.37847 -63.824 -52.6173 -54.0129 -87.834 192.62
83 2 -8.75958 -75.5389 -16.5113 -100.565 55.3168 39.5953 -35.9213 -85.7307 -64.8143 -88.8214 246.208
14297 2 -12.7975 -80.5059 -20.6109 -32.3348 12.7429 -76.5958 -22.2343 -36.1428 -112.843 -83.4791 222.686
7658 1 -8.49344 -80.4034 -20.6902 -73.0452 -70.5033 149.435 26.4305 105.716 257.441 -356.46 532.343
14508 2 -7.17787 -80.2556 -17.7734 -69.893 62.309 -23.2676 -41.8063 -150.654 -96.6404 -90.7539 338.878
14596 1 -11.8994 -77.1827 -14.7043 283.566 -202.89 -14.6955 108.568 40.2198 115.586 -361.726 510.689
17361 2 -7.03175 -76.128 -14.8429 -76.9757 -2.02308 47.2311 -24.0815 -87.1904 -35.2467 -87.135 200.022
12679 2 -12.683 -75.5178 -19.5666 -22.3652 12.7135 -72.4794 -33.1506 4.23166 -13.1239 -87.0031 96.7844
11895 1 -5.85027 -81.1715 -17.5314 142.83 -144.153 30.9389 -63.1601 304.077 239.389 -348.876 723.909
14689 1 -3.9295 -81.0879 -19.7896 108.858 -24.3846 -19.6549 10.0531 235.15 176.705 -333.295 526.317
12008 2 -2.11445 -80.336 -16.0196 -14.2294 -9.19468 -63.3307 59.6041 -120.635 -13.3785 -89.0785 239.868
9792 2 -4.68586 -80.2688 -16.8369 -45.7554 13.1436 -9.39896 44.3879 -131.384 -49.9123 -91.6141 260.422
2135 2 -4.54566 -79.6035 -20.1715 -46.4323 20.6099 9.87375 -31.1702 -109.089 -91.1272 -103.043 259.651
17293 1 -3.47239 -79.4397 -16.138 93.9839 -51.7769 13.2421 -98.1375 261.944 -44.4048 -356.773 506.605
9600 2 -3.06242 -78.1408 -16.9988 -62.1645 -6.45545 -20.0057 48.9083 -58.1369 -13.1424 -90.1626 142.71
12195 1 -2.02399 -77.5191 -18.0806 142.851 -107.525 -24.4354 -8.28134 30.8766 5.17546 -346.579 227.891
2406 2 -2.63068 -77.2841 -19.5146 -54.3852 48.2044 13.3181 -10.0311 -10.9285 -15.4647 -98.9697 97.6747
7266 2 -5.94171 -77.4042 -20.7122 -13.9427 64.4114 -47.4785 -100.304 -90.4398 -29.9669 -99.3466 259.435
9828 2 -3.96604 -78.9985 -14.7199 -72.1332 40.9439 3.3936 44.6118 -149.165 64.7218 -84.607 308.606
12297 2 -7.14062 -79.6523 -21.0036 36.2544 11.5518 -59.0109 -48.107 -104.482 -132.432 -95.9523 315.657
17377 1 -2.18854 -76.7113 -20.8967 93.5741 -168.61 55.1938 13.3 10.1392 -57.2493 -326.063 266.125
17506 2 -1.21379 -76.2872 -17.4499 -87.3236 38.6249 22.4975 17.929 5.63729 30.513 -90.6452 133.958
12272 2 2.81 -81.2839 -19.9617 -51.6211 35.989 -15.2857 -17.5902 -0.68314 67.7534 -93.7071 143.226
14502 2 -0.0402306 -80.9044 -18.4363 -6.10245 -86.4704 -58.9011 -33.728 -40.2568 18.804 -96.4734 119.744
19907 2 2.38249 -81.0411 -17.0523 -4.41549 -44.107 -71.1697 -5.19555 23.279 29.0832 -89.9953 87.328
14597 2 -0.83081 -78.589 -18.3042 -34.5331 42.1505 -29.4667 -24.6531 -3.73178 -2.91074 -96.4103 86.0701
9577 1 1.49389 -80.5497 -15.6637 -10.757 122.22 100.93 -25.0019 -85.5091 -57.3406 -359.901 221.313
7276 1 2.92498 -80.4383 -18.5502 -61.8748 69.6313 36.6068 -66.3468 -36.1524 -94.8881 -348.087 241.204
19605 2 4.3971 -79.9338 -18.3825 54.2791 4.02659 -76.6206 70.5142 49.7943 24.0827 -93.5478 192.814
12484 1 0.404681 -79.4257 -17.9445 -27.5528 40.4796 126.983 43.7905 -1.02818 -54.1734 -343.19 180.434
12009 2 0.743264 -79.3192 -16.3789 11.0849 -39.6484 -69.1117 -9.52328 24.7056 80.7014 -91.3912 163.028
19781 2 1.82764 -79.2032 -18.703 51.0935 -13.1872 -41.1126 10.7242 0.78693 19.856 -94.4087 90.7555
17095 2 0.92677 -75.9027 -15.6462 -38.4028 19.0086 2.44816 -4.96616 -20.4953 54.3639 -87.9306 113.225
29717 2 -0.531256 -76.5674 -20.9123 -0.282297 63.4361 -52.0724 -3.12809 7.89909 40.863 -101.444 123.564
7393 1 -0.469934 -75.3745 -16.3866 158.013 -34.4146 -97.8069 -65.4274 -5.23458 -93.8862 -359.443 304.325
12294 2 9.13334 -80.8103 -19.7716 -63.6226 157.016 -55.8854 7.15695 43.966 -13.8708 -94.962 231.439
7179 1 8.28329 -80.4762 -18.4159 130.539 -356.424 209.918 40.4463 -48.5981 45.9569 -339.929 548.104
22365 2 6.91384 -79.6708 -18.6324 -37.6065 89.311 -82.633 11.6729 53.9886 -10.8327 -98.3636 182.634
14770 2 9.13558 -79.4357 -17.4983 -21.0959 144.727 -119.586 -15.6317 13.9734 -42.377 -99.8667 245.429
17392 1 5.56747 -78.9595 -18.0189 -20.9792 -66.9665 155.456 -145.152 -79.7167 24.6032 -338.524 354.183
17195 2 5.70227 -78.6883 -16.4937 -22.272 18.7455 -43.4497 41.444 -14.6568 -18.5767 -97.2269 99.1573
7496 2 10.582 -78.0173 -15.7212 27.0352 82.8468 -55.2362 -3.33039 43.389 -27.2472 -94.2621 149.611
22285 1 9.31834 -78.0029 -16.7586 1.00198 -203.601 170.382 12.9397 -44.9808 67.1998 -333.151 354.016
17208 2 8.01706 -77.6747 -15.9677 -67.2458 70.1301 -52.2654 26.6846 1.80371 -29.8008 -100.578 147.813
19791 1 6.52053 -77.5632 -15.729 112.173 -64.0973 22.7933 -64.7085 90.2304 74.4856 -338.053 277.372
14988 2 5.40631 -77.5505 -18.7242 -27.8327 39.8888 -39.1803 87.9223 42.2501 -22.7459 -100.194 188.631
17207 2 7.38458 -77.1936 -20.3296 -43.5843 19.5159 9.30578 34.6573 57.1966 11.4167 -106.595 131.341
17500 1 5.80774 -76.8468 -20.0936 38.6672 -80.0827 22.2997 -100.511 -130.965 -22.2694 -327.138 309.317
9886 2 9.32393 -76.7018 -17.8056 1.77821 89.5177 -94.3519 9.23819 13.2692 -8.72931 -106.06 162.439
17468 2 6.20127 -76.006 -16.2065 -22.9334 71.9168 -55.0212 24.8887 -52.5078 -15.5166 -98.2318 154.666
12574 2 9.24901 -75.6117 -20.1454 39.4623 38.3633 -23.5595 29.5551 29.7327 45.6861 -107.249 124.25
20559 1 8.98207 -75.3756 -18.59 17.3939 -187.926 148.199 -84.5523 -57.4666 -105.459 -316.214 388.385
17290 2 9.99108 -78.0459 -20.551 38.4386 31.9121 -23.6084 -26.6112 40.3883 -1.46983 -101.524 102.528
19778 1 8.90363 -76.9496 -20.9248 -38.9366 -0.875717 -40.6285 -9.83527 -88.7756 -52.0923 -324.161 183.276
14875 2 16.174 -80.8046 -16.5506 -21.8255 130.384 -117.914 19.303 82.1868 -31.2572 -90.9904 267.094
19885 1 12.88 -79.9493 -17.8733 -32.4317 -224.014 221.425 -18.4668 -76.426 68.4826 -340.356 427.08
17367 1 16.4382 -79.4329 -15.6603 -2.4931 -133.834 179.332 -79.8751 -170.326 43.4963 -353.533 431.324
19893 2 12.5775 -79.3716 -16.3286 22.4842 67.9186 -70.6058 18.9706 31.9779 -49.7993 -93.587 162.932
20254 2 11.7775 -79.2969 -18.9157 40.1445 74.5163 -127.998 1.47529 23.3875 -22.5326 -100.006 195.967
22268 2 14.2752 -79.2982 -18.2954 -0.139447 70.3079 -140.724 1.32402 83.1779 -18.4066 -99.1 237.503
19687 2 15.236 -78.8379 -20.6301 13.5227 -4.66065 -55.6737 15.5428 50.5163 11.2472 -94.8434 112.341
6975 1 11.509 -78.3279 -20.1612 -87.8039 -139.692 164.281 35.7418 -84.6609 25.4583 -332.261 326.494
22215 1 11.9409 -78.4924 -15.1011 -34.6668 -144.187 111.507 -30.7053 -76.1474 78.171 -354.573 296.524
17285 2 15.5033 -78.1832 -15.5722 13.6369 39.267 -76.3299 20.9833 91.1123 7.64607 -92.3192 193.539
14894 1 15.2427 -78.2988 -19.0924 -99.0087 -72.2108 259.541 -20.8165 -196.282 0.98161 -338.634 486.364
24953 2 16.7139 -78.0647 -18.4707 110.942 0.514978 -145.352 34.5377 73.9817 -3.58207 -95.0594 263.848
14913 2 12.0531 -76.8618 -19.7109 40.5954 79.0473 -107.238 -7.21278 38.1747 -14.6862 -103.704 184.913
7521 2 14.4683 -76.9583 -19.1985 -1.89699 82.6363 -131.258 5.03017 91.6545 -8.71344 -100.084 245.603
24685 1 13.3031 -75.946 -19.494 -20.5681 -203.172 183.917 -21.4461 -161.895 32.5425 -329.497 442.363
19997 2 14.7923 -75.6778 -15.9505 19.9522 27.0374 -68.2115 -11.0196 104.68 34.8843 -95.1569 212.923