ITEM: TIMESTEP
1760000
ITEM: NUMBER OF ATOMS
29952
ITEM: BOX BOUNDS pp pp pp
-2.5215326849417927e+01 3.5200621184295613e+01
-1.1754894874721887e+02 1.2753424308921888e+02
-2.0972667834995136e+01 3.4840520979710341e+01
ITEM: ATOMS id type x y z v_StrAtomXX v_StrAtomYY v_StrAtomZZ v_StrAtomXY v_StrAtomXZ v_StrAtomYZ c_PEAtom v_VMS
7089 2 -20.8016 -94.8383 34.665 -289.568 434.587 -391.354 -28.8226 -34.7198 17.5343 -22.5473 784.539
2238 2 -8.13874 -93.9114 -16.7554 -278.726 320.109 -380.187 -49.5887 -6.39711 41.7487 -84.5766 665.12
14403 1 -8.08383 -93.7139 -15.1879 431.398 -602.067 846.797 97.1963 129.49 20.3509 -351.422 1322.8
22001 2 -4.38139 -93.8975 -16.351 -253.732 284.2 -359.241 -106.546 -115.617 16.247 -79.2211 657.426
9425 2 -1.87938 -93.9005 -17.4394 -81.0421 244.26 -271.297 -96.9915 -243.331 -12.6584 -50.6332 640.501
14659 2 3.70623 -93.2847 -20.5919 -430.691 270.232 -179.338 6.01425 132.62 -58.4788 -83.8016 664.398
27352 1 16.544 -93.4537 -18.947 557.258 -636.086 793.504 21.0131 -126.198 -4.60833 -381.861 1345.72
29483 2 15.0079 -93.2364 -18.6835 -184.295 326.631 -384.23 -18.3536 46.8721 5.09137 -69.5168 640.976
24561 2 17.2367 -93.9839 -17.6371 -353.096 344.467 -373.702 4.56408 35.4906 -5.76173 -73.6442 710.869
12203 2 17.6415 -93.742 -20.108 -331.83 344.594 -384.017 4.75317 49.8552 25.7165 -73.21 710.691
14324 2 19.5981 -93.8742 -18.5461 -267.802 325.19 -418.861 -30.3556 23.05 -2.23975 -69.7644 684.404
27166 2 19.2858 -93.4695 -15.692 -323 305.636 -309.471 -11.4401 51.6424 3.69952 -65.4482 628.725
24554 1 18.6919 -93.5254 -17.1769 678.176 -593.894 674.39 20.4582 -96.6116 -17.5955 -386.06 1282.01
14979 1 19.2442 -93.2808 -19.9955 549.418 -642.272 782.206 -4.11398 20.8237 43.4056 -390.124 1326.17
9982 2 -22.4963 -92.8383 -20.7028 -237.994 179.123 -279.859 24.9015 -39.1211 18.6153 -51.4675 447.987
2506 2 -19.9984 -92.2975 -20.7131 -173.135 84.395 -217.749 -43.0442 -49.8967 5.58416 -51.3277 304.832
27158 1 -23.6838 -92.2073 -19.9543 451.837 -253.512 474.018 -70.5267 -30.2869 -35.2759 -408.82 731.48
29564 2 -23.1624 -91.5644 -18.5674 -200.529 65.8524 -122.415 35.6125 33.2034 27.9318 -71.2043 256.331
29595 1 -19.6671 -90.7328 -20.4251 183.527 10.0979 232.031 30.4215 78.0475 -54.2551 -404.895 265.939
9397 1 -23.0517 -90.065 -17.9712 219.762 79.7815 52.5766 -91.6294 -48.3688 13.2496 -368.719 238.487
24846 2 -21.1446 -89.9813 -20.6822 -114.942 -3.97381 -101.157 7.07896 -34.0944 -2.22549 -72.0884 120.941
1999 2 -21.7465 -89.8027 -17.0932 -72.7135 -47.1788 -50.4157 34.2419 -11.0275 -42.4528 -86.3949 99.3424
22195 2 -24.1846 -89.856 -16.7396 -90.3093 -59.3738 -84.6935 15.9554 72.3566 -9.0398 -89.8732 132.401
4705 1 -21.4658 -89.7221 -15.4982 48.6359 10.9554 301.665 -22.4873 25.2338 100.797 -345.23 329.978
24862 2 -23.1155 -89.1295 -19.3041 -89.4215 10.7195 -53.0431 49.6666 27.8694 -60.6168 -80.4566 168.708
2392 1 -22.3586 -88.9071 -20.8016 167.263 -67.0184 168.588 -61.1684 2.28111 109.61 -381.309 320.13
2417 2 -21.6743 -87.4294 -20.7275 -73.9794 49.2959 -85.1891 28.4286 16.1179 -47.7969 -78.6278 163.591
4724 2 -19.1648 -90.0241 -19.1099 -41.6126 -28.2389 -91.9117 -4.55071 -20.5525 8.32816 -71.1327 70.1353
2338 2 -24.3855 -90.9311 -20.6866 -140.394 34.7989 -186.531 15.9823 28.328 -21.2715 -72.4787 213.155
7277 2 -18.954 -87.7793 -17.703 -14.7841 9.6479 -118.749 -6.65462 -17.2891 -100.335 -84.2709 212.547
115 2 -13.4978 -92.4118 -15.4911 -97.025 184.899 -318.377 -77.0698 -67.6796 7.73739 -72.1594 471.829
14593 1 -13.7066 -91.5025 -16.8091 174.626 -248.992 507.329 211.032 77.4918 31.6583 -382.285 765.316
12108 2 -14.9807 -91.0687 -17.8203 -67.1532 81.2956 -229.806 -114.503 -24.8222 -12.7381 -71.4921 338.093
4793 2 -18.5451 -90.1589 -16.4992 25.1302 -15.1491 -162.369 -15.0869 -65.7962 -50.4055 -78.9863 224.763
7105 1 -15.4111 -89.801 -18.7055 35.2931 -41.9197 290.713 176.413 37.3035 56.1799 -383.985 444.893
7595 2 -15.481 -89.6441 -20.2907 -54.3348 13.7236 -96.2736 -69.8276 15.5569 -19.9123 -71.5102 160.587
4623 1 -18.4076 -89.2786 -17.8936 -28.4386 64.4034 224.905 34.1064 75.1032 83.8375 -378.087 301.296
4783 2 -16.856 -89.3114 -18.1869 42.1038 -38.296 -143.225 -55.6288 -37.1567 -40.966 -76.8487 210.643
14608 1 -13.4503 -88.6173 -15.4461 16.918 -158.528 317.196 231.335 78.3926 30.6573 -358.743 596.184
4603 2 -14.3417 -88.7051 -18.3841 -61.1644 38.2004 -157.336 -104.611 -40.9777 -61.062 -83.4027 278.804
27147 1 -13.4959 -87.3639 -18.0766 149.317 -126.769 211.812 162.275 96.0311 139.985 -363.884 512.675
7678 2 -14.976 -88.2727 -14.9715 7.44081 22.2051 -124.79 -67.7802 -70.9796 -22.8761 -87.3355 223.879
14605 1 -18.5431 -89.8147 -14.9858 -104.989 38.5807 341.2 -10.8216 80.5372 145.827 -362.454 489.126
4514 1 -16.39 -87.4425 -14.8321 -69.578 18.1031 181.616 32.0405 110.065 54.5447 -361.273 311.624
12281 2 -17.5067 -88.5949 -14.7608 65.7036 -18.3539 -122.678 12.2228 -39.8008 -56.4329 -86.9163 203.649
9297 2 -13.4294 -90.0775 -16.1144 -36.9989 77.6913 -204.931 -137.018 -44.657 -24.1497 -85.6041 353.086
4607 2 -13.8738 -87.6391 34.7769 -84.0728 32.2484 -99.9909 -62.3562 1.26753 -84.2123 -78.3308 220.41
29840 2 -13.0178 -87.583 -16.5439 -34.5502 80.6368 -139.927 -81.6191 -18.197 -38.3083 -87.4134 248.78
29685 2 -12.8123 -90.6511 -20.2358 -168.473 82.0103 -173.128 -94.4987 42.6247 -52.8813 -74.066 323.357
6935 2 -12.7224 -91.9827 -17.947 -155.069 154.896 -252.735 -90.2868 -2.15988 -10.9759 -73.6406 400.9
4491 1 -7.61439 -92.5415 -17.3833 422.92 -386.586 553.705 158.553 70.6084 71.7656 -351.335 940.267
2181 2 -11.3675 -92.2036 -20.4812 -225.892 198.413 -281.066 -83.5932 74.6649 8.10668 -63.6706 494.343
9403 2 -7.52854 -92.0741 -15.6658 -169.385 188.448 -343.635 -96.9646 -46.2041 -11.315 -103.426 505.722
9692 2 -8.61539 -91.5024 -18.0444 -120.784 153.407 -240.132 -103.441 6.19642 -94.1096 -87.6569 425.363
4791 1 -11.8271 -91.4299 -19.1329 286.779 -228.209 438.963 194.189 -80.9861 83.4789 -383.633 721.427
14601 2 -10.7894 -90.5071 -18.3816 -78.0483 85.601 -199.523 -109.382 12.2132 -83.4192 -83.7817 344.433
17077 1 -9.29837 -90.0335 -18.1085 114.906 -257.997 338.629 179.713 23.4911 241.019 -360.745 738.479
16980 2 -8.82821 -89.4448 -16.682 -98.5941 186.362 -186.625 -93.9565 -55.7105 -59.1063 -92.5982 400.387
9608 2 -8.78604 -89.0037 -19.2474 -53.9759 134.857 -172.903 -24.9135 -52.8846 -187.994 -81.6606 434.208
6903 1 -8.97545 -88.5865 -15.285 152.99 -417.269 408.393 231.663 188.913 -16.0171 -349.403 897.167
4600 1 -8.13196 -88.2614 -20.5572 39.6584 -225.398 440.9 -8.4754 166.78 403.343 -378.802 953.582
12377 2 -9.71783 -87.2753 -15.7417 -89.8623 179.986 -179.399 -97.8518 -111.528 -33.9392 -87.3602 417.723
7304 2 -12.3181 -87.1484 -19.0779 -49.7826 83.759 -104.814 -58.8143 -56.6672 -93.9809 -82.1468 273.348
6996 2 -7.51144 -88.1237 -14.7743 -90.9413 234.883 -203.191 -72.7501 -107.671 8.35658 -90.664 454.094
9722 1 -3.04306 -93.0404 -16.9914 259.933 -367.712 529.759 115.228 420.672 67.5387 -398.944 1104.77
9226 2 -3.73434 -92.0407 -18.0417 -163.458 142.978 -185.508 -6.52812 -251.147 -99.1983 -72.2583 565.703
7030 2 -2.84722 -92.1744 -15.5483 -80.325 123.517 -324.565 -9.39912 -117.363 -35.577 -77.2348 443.142
4962 2 -6.21375 -92.0043 -18.0053 -229.957 163.251 -196.017 -50.4844 -140.342 -95.6484 -87.2224 486.414
7010 1 -4.91611 -91.3373 -18.7384 397.454 -323.194 323.038 9.36188 474.924 298.302 -379.938 1189.59
7577 2 -5.16409 -91.3185 -20.369 -218.489 198.089 -212.28 -12.9054 -266.269 -96.5569 -67.1546 641.993
14603 2 -5.92149 -89.8313 -15.4341 -150.912 252 -245.003 -11.6902 -61.1843 -47.0466 -96.5485 476.846
19013 2 -4.89184 -89.7133 -18.9948 -145.514 192.918 -158.112 34.9789 -219.784 -194.365 -78.8887 617.153
10070 1 -5.34783 -89.6951 -20.6141 281.483 -341.055 459.925 -0.650958 470.425 342.555 -386.027 1243.55
14595 1 -5.98801 -88.1808 -15.2236 223.696 -515.631 412.401 -33.9048 179.637 116.423 -358.071 928.789
12381 2 -5.94509 -87.2817 -16.5148 -109.212 197.14 -135.554 43.5827 -131.151 -124.429 -84.4554 454.272
19399 2 -1.44395 -87.3605 -16.981 -41.7269 47.4633 -154.346 44.5574 -153.333 -70.5299 -78.2735 349.421
7303 2 -6.7948 -89.1108 35.1127 -86.2348 137.579 -263.953 -4.75553 -144.817 -201.634 -75.86 553.539
12208 1 -1.08129 -86.943 -18.4492 82.7287 -46.723 214.762 34.7641 230.661 5.33195 -367.908 463.256
14788 1 4.54795 -92.3875 -19.4666 720.477 -424.935 341.821 -66.9678 -315.717 125.158 -365.203 1175.21
24956 2 3.4882 -91.1269 -19.2981 -272.703 177.466 -154.748 -45.1185 79.6696 -29.2661 -84.4003 437.247
14763 1 2.98602 -90.2596 -20.5236 487.713 -458.939 313.024 162.487 -98.6034 11.8935 -356.881 932.788
16880 2 1.60708 -89.484 -20.2531 -173.265 214.669 -164.205 -155.738 -59.7316 25.8869 -83.7246 482.221
17158 2 -0.578141 -87.9926 -19.6067 -66.4629 80.0185 -127.716 -70.3133 -143.972 23.9099 -82.0464 336.024
12172 1 0.449293 -88.5079 -20.7933 257.591 -310.309 254.26 264.007 213.29 -65.8578 -363.213 824.147
7078 2 4.43934 -89.5761 -20.9831 -192.251 211.269 -133.802 28.4517 87.1252 -55.2047 -89.4637 420.717
12190 2 5.41598 -92.5985 -18.0897 -355.62 220.934 -189.223 64.0839 170.17 -64.4169 -79.2019 613.032
24691 2 8.06041 -92.3109 -17.8425 -169.314 279.955 -220.644 109.691 105.582 -17.5028 -69.3961 545.89
17246 1 6.7061 -92.2182 -17.2198 584.045 -466.242 420.396 -234.715 -347.629 60.0098 -381.655 1223.36
12103 2 5.56076 -91.6168 -20.4418 -262.143 186.734 -161.339 88.7457 133.622 -63.3954 -85.4106 505.62
9595 2 6.83134 -91.4629 -15.7786 -256.626 198.723 -215.422 152.556 149.315 10.835 -77.1541 572.132
15225 2 9.64464 -90.5438 -20.7349 -36.783 126.175 -231.339 62.2126 96.205 10.3037 -74.5786 368.521
15052 1 7.85944 -90.3715 -15.0634 429.542 -286.975 304.587 -280.005 -270.697 -49.0198 -369.865 949.593
22569 2 7.184 -89.5442 -20.513 -86.6809 84.9513 -125.374 143.922 142.059 -51.3668 -82.7653 410.115
14500 1 8.72088 -89.2577 -20.2583 97.3454 -161.723 298.848 -222.044 -233.896 45.2749 -369.871 691.451
17105 2 7.91537 -89.2456 -16.244 -203.999 106.928 -99.8432 108.477 125.988 -14.8822 -85.1166 398.402
14878 2 9.00417 -88.8791 -18.6381 -104.226 75.2987 -108.454 90.3605 69.2412 -29.5603 -85.9754 272.957
17365 1 8.78016 -88.2306 -17.2326 333.959 -238.383 117.015 -143.71 -144.989 114.124 -360.102 643.871
15104 2 9.98237 -87.9147 -16.2445 -170.583 109.125 -40.5649 50.007 61.0668 -53.1368 -89.3335 293.145
15041 2 9.26581 -87.9729 -20.9859 -65.2482 92.6527 -108.016 73.4157 109.43 -56.273 -84.9886 308.398
24673 1 11.124 -90.9309 -20.3377 204.582 -295.672 529.171 -34.1972 -132.503 -33.651 -385.168 759.977
17213 2 11.2144 -91.101 -18.7849 -112.921 147.626 -213.318 7.91292 17.458 -9.58109 -74.4327 324.808
22686 2 11.3656 -87.368 -19.4379 -82.0056 154.47 -144.564 31.442 27.5707 -31.2681 -90.4324 287.762
14433 2 11.4908 -90.9463 -16.0104 -118.768 116.019 -129.511 13.6221 -4.66658 -13.6087 -76.5433 242.776
12596 2 16.5399 -91.7456 -19.0654 -188.026 227.698 -332.194 -54.1474 41.5051 -30.53 -84.5463 519.908
17179 2 13.4563 -91.5914 -17.5799 -110.317 173.461 -208.871 -55.4837 8.86747 -1.8074 -73.5288 357.339
21987 1 14.8447 -91.5615 -18.445 215.73 -380.493 525.641 183.317 -90.2684 -2.49928 -376.069 872.686
19757 2 14.2483 -90.8991 -19.8871 -101.869 162.604 -262.044 -74.7176 79.709 -33.442 -81.2308 420.866
14786 1 12.1566 -90.7345 -17.5183 209.064 -195.944 262.135 50.0047 4.6627 28.3638 -379.228 445.334
24852 2 15.4168 -90.27 -17.4513 -101.548 154.795 -165.164 -60.3736 29.81 24.3935 -83.3786 318.515
27090 2 12.4389 -89.1321 -17.7575 -79.6298 93.8451 -97.9873 -12.3819 17.0503 -22.4791 -85.7547 190.953
14524 1 15.722 -89.2497 -16.2868 196.729 -306.872 226.143 7.93682 -32.341 -31.4101 -368.261 524.956
17088 2 14.6399 -88.2415 -15.4609 -80.6074 116.886 -90.1291 29.3178 1.71506 -7.51845 -84.0015 209.122
22266 2 16.6468 -88.1617 -16.9689 -78.833 184 -146.441 16.9106 40.9956 8.59771 -84.2001 312.32
12212 2 13.9612 -87.9207 -19.5732 -85.272 187.371 -169.066 3.11562 55.3788 -26.0417 -88.8449 339.802
12304 1 12.6727 -87.8086 -18.6253 140.124 -343.635 267.59 -38.832 -74.9077 58.5935 -356.968 586.165
19393 1 14.9968 -87.0876 -20.3918 193.221 -333.648 239.006 25.0349 -160.709 28.6461 -358.777 620.994
16902 2 12.1138 -89.679 -20.8038 -113.686 113.888 -199.421 -7.29038 42.3434 -35.9424 -83.5372 296.758
17390 1 18.8126 -91.97 -15.3131 550.998 -467.015 447.974 -70.2482 -28.9669 -145.396 -388.688 1011.35
17561 2 18.2955 -91.9057 -16.8332 -290.928 240.219 -236.514 23.1688 41.0402 54.3373 -80.7921 521.246
22053 2 18.9436 -91.7612 -19.4878 -216.845 257.628 -337.376 65.0698 7.21787 -50.744 -81.7376 563.405
17553 2 19.8026 -90.6767 -15.2362 -174.34 205.475 -235.267 121.122 11.382 71.9369 -72.9633 480.664
27064 1 17.6723 -90.7823 -19.6803 334.358 -450.733 554.028 -42.1498 -60.8034 105.607 -363.469 941.787
29923 2 18.0185 -89.351 -19.1632 -91.849 193.676 -233.793 50.3412 35.0507 4.49713 -84.8287 391.855
14692 1 20.2745 -89.1728 -15.8306 134.535 -250.341 399.996 -317.793 2.12199 -109.735 -379.773 812.334
29733 2 21.8487 -88.7342 -15.8122 3.33582 49.84 -214.889 154.044 -16.3708 42.3182 -76.5385 370.538
17695 2 19.8488 -88.9884 -17.3696 -36.4819 135.954 -202.558 145.718 29.46 38.6991 -80.5509 395.917
12320 2 20.3228 -88.3794 -19.8219 44.0743 86.9172 -256.607 153.722 11.8362 9.16628 -80.7035 420.346
17101 1 19.2031 -88.331 -18.6694 21.6922 -287.265 433.314 -201.056 -54.7699 -67.339 -370.379 732.076
17081 2 18.4738 -86.9947 -18.2654 11.9061 180.184 -215.477 40.4741 42.3926 26.7807 -82.5062 361.582
19586 1 23.0409 -87.7182 -16.2448 -23.5668 -3.34678 330.375 -143.89 -7.68578 -73.5281 -368.336 443.887
17544 2 17.3971 -90.6308 34.5659 -167.043 159.721 -256.245 6.54334 78.9361 -92.8524 -80.6424 434.242
22265 2 23.4516 -87.9264 -17.866 -18.429 -4.54472 -171.017 64.5523 1.69178 26.5693 -86.9639 200.554
9348 2 28.5126 -88.803 -16.1965 -6.05315 -28.8462 -116.029 -84.8624 117.393 -24.5174 -83.3941 273.604
24752 2 24.3949 -87.7265 -15.3688 24.9987 -45.4207 -132.485 -1.79081 74.2767 45.2996 -81.3283 203.438
22350 2 24.0527 -87.8066 -20.5104 -66.6899 -5.95851 -135.139 39.3178 -25.0876 9.36775 -90.3991 138.995
19875 1 28.0526 -87.3614 -15.6536 -86.0637 109.883 160.077 208.679 -235.047 -12.2389 -364.605 589.559
24855 1 24.255 -87.3994 -19.0682 106.521 44.6174 238.665 -47.1312 -20.4874 -59.5218 -351.384 219.149
17093 2 29.0182 -90.0318 -18.3006 -68.7281 63.9646 -155.98 -13.0116 113.555 -32.4076 -75.1464 281.32
24582 2 29.1846 -87.5699 -19.2773 20.9861 -70.2975 -85.8889 -38.9785 82.2159 -62.9063 -85.8189 216.118
27233 2 28.775 -89.4677 34.7739 -26.1217 37.0717 -162.577 -1.19636 114.807 -23.384 -78.3961 269.115
29562 2 29.3627 -91.2477 -15.7114 -169.992 172.239 -236.734 34.6743 118.895 3.0836 -71.8642 436.418
7309 1 29.4929 -89.9848 -16.7092 165.663 -88.864 284.302 38.6287 -206.796 59.8167 -376.368 502.554
29760 2 -25.2523 -92.7972 -19.9942 -263.747 236.817 -305.528 50.0287 41.8842 10.215 -57.6649 535.077
29846 1 29.4842 -89.1528 -19.6104 48.5411 22.3439 230.664 64.0279 -221.322 99.5011 -373.889 477.05
2197 1 35.2255 -89.8167 -15.5729 45.9517 70.8857 225.351 26.8451 -104.109 -37.1754 -346.451 259.146
9634 2 33.4472 -90.6625 -20.0203 -103.11 50.1304 -192.924 -27.4056 30.1267 -11.6823 -73.6347 225.162
29615 2 31.0374 -89.6213 -16.6968 -45.357 -20.1895 -106.536 -15.9072 87.4398 -27.5015 -83.816 178.553
22061 2 33.7095 -89.4208 -15.9133 15.1805 -48.6997 -89.2548 -24.6763 97.4731 0.893649 -89.7586 196.592
4949 2 31.0487 -89.3827 -19.8829 -24.3436 -13.3067 -133.637 -38.0748 72.19 -51.2649 -79.2679 202.832
29487 1 32.618 -89.2221 -19.8149 59.2746 19.4253 228.911 88.8505 -80.8899 119.262 -374.683 350.866
9613 1 32.4802 -88.8326 -16.701 -14.222 106.087 129.711 60.4473 -198.833 45.7404 -361.566 392.066
27152 2 32.8653 -88.6865 -18.2752 -20.4238 -40.1137 -61.4357 -30.1405 77.8108 -58.611 -83.1774 180.158
29813 2 32.0183 -87.4311 -16.0575 -2.58713 -2.57594 -58.3187 0.0321769 103.315 -26.0276 -86.8461 192.771
29557 1 34.5498 -91.5607 -20.8452 351.062 -218.736 506.547 -16.5086 -85.6751 16.6349 -400.138 679.05
24773 2 33.139 -88.2712 34.7903 -36.2277 34.4385 -158.871 -9.40358 13.6451 -82.1197 -80.9914 223.062
29762 1 -19.4974 -86.2109 -17.5488 92.9898 -90.1238 185.341 58.8935 73.2255 243.856 -363.682 513.672
29766 2 -20.8393 -86.0831 -18.5275 -88.9841 77.2288 -74.7437 -3.51366 -12.8756 -101.175 -84.6673 238.131
29581 1 -21.6379 -86.0728 -19.8916 139.021 -149.132 168.468 -40.767 -45.7214 130.974 -371.241 393.833
22398 2 -20.0314 -85.8366 -16.0443 -56.038 64.3527 -58.6305 -47.0855 -77.2684 -86.9262 -86.1718 249.086
9682 2 -23.2436 -85.7214 -19.8835 -34.6424 78.9753 -87.0974 8.19186 51.592 -48.3352 -80.6292 191.874
24865 1 -24.6475 -85.5326 -20.6924 36.2114 -107.21 204.721 -37.2666 -112.878 96.6022 -372.456 378.84
2300 2 -22.7097 -83.6001 -17.1661 -124.022 104.85 -48.9582 -24.9846 -34.0825 -91.1635 -87.5072 266.696
29860 1 -20.6229 -83.3449 -20.4822 203.697 -188.789 108.807 37.958 72.1482 157.612 -365.146 469.329
29836 1 -22.8917 -83.3776 -15.6023 299.936 -264.921 77.3658 25.0412 18.7366 247.904 -356.828 655.884
4782 2 -21.4241 -82.7302 -19.3202 -96.1841 101.46 -73.6408 -18.8751 -49.9743 -55.554 -87.1564 230.077
29859 1 -22.1835 -82.3106 -18.016 212.446 -209.074 145.583 14.9784 103.904 120.204 -356.747 479.972
19985 2 -23.4765 -81.8599 -15.7395 -175.467 125.209 -59.7333 20.8762 1.99565 -78.5862 -89.9484 298.075
27284 2 -21.1342 -81.4924 -17.0437 -119.952 118.814 -97.3441 19.8149 -49.9231 -72.9059 -87.9627 276.989
20195 2 -23.4658 -81.4602 -18.6166 -88.1848 85.6394 -54.2545 23.2073 -4.53057 -52.7929 -89.1344 188.432
27656 2 -21.5718 -83.9286 -14.9282 -137.395 124.502 -10.9121 -29.5491 -20.9292 -95.5536 -87.1144 287.728
2022 2 -24.8972 -81.2006 -20.8492 -60.7771 67.7865 -38.1942 54.7604 41.7568 -32.9476 -83.5523 177.817
29879 2 -21.0792 -84.8142 35.11 -82.8562 60.1795 -64.2413 0.548418 -12.6605 -64.578 -82.5431 176.453
25118 1 -24.8706 -81.1555 -19.2068 142.146 -167.374 98.2076 -67.7907 -62.669 73.0921 -363.524 354.584
22477 1 -20.7842 -85.3541 -14.7175 144.334 -155.563 49.8031 59.3068 103.526 93.2156 -358.737 373.226
4727 2 -19.0395 -83.5865 -20.1146 -74.0445 90.2039 -90.2618 -44.4474 -24.8786 -85.9057 -83.4263 244.596
5003 2 -16.2742 -86.425 -16.0683 18.5144 -15.566 -116.513 -26.8595 -26.1674 -70.8891 -85.7844 184.625
89 2 -14.5586 -86.2127 -17.952 -59.0225 37.9194 -139.057 -56.8267 -41.4481 -95.2694 -85.3204 256.188
2286 2 -17.9301 -86.0314 -20.3733 -31.3201 -5.57714 -46.2281 -48.5084 -29.0898 -65.9166 -80.0047 154.601
9782 1 -15.2833 -85.4057 -16.7152 75.19 -55.1101 222.702 60.3784 20.1755 180.236 -366.377 409.355
7113 2 -18.4507 -85.2041 -18.1316 -26.0117 21.733 -125.102 -53.1817 -17.8759 -121.655 -83.9354 265.843
9511 2 -14.1338 -85.1533 -15.6044 -59.6313 41.7321 -94.8803 16.7489 -4.41558 -32.9081 -83.8577 138.704
27469 1 -17.974 -84.6823 -19.5402 26.5974 -56.5545 224.083 89.2421 28.4936 179.162 -370.424 430.071
27245 2 -16.5416 -83.9532 -19.6243 0.924519 53.6848 -127.593 -39.905 -12.0322 -79.8733 -79.8543 224.57
27437 2 -15.6924 -83.9803 -17.2897 -43.7317 85.1754 -137.605 -37.1027 -1.93689 -97.9403 -79.6331 265.421
29673 2 -13.9366 -83.5095 -19.179 -46.371 73.8044 -122.885 -14.7778 -50.751 -81.4141 -79.7695 240.33
4717 1 -15.4459 -83.2523 -18.6964 40.4595 -200.375 326.677 71.7159 29.8355 167.292 -376.377 557.595
7398 2 -15.616 -81.6743 -18.6499 -13.8083 121.804 -165.893 -46.437 -8.13902 -44.4743 -78.4776 273.399
27476 2 -13.0227 -80.8764 -15.121 -125.618 124.241 -53.5086 -85.6604 -8.78845 -22.6426 -80.4767 270.915
7203 1 -12.7377 -83.6953 -20.2833 90.8165 -100.093 194.604 -1.0932 129.672 150.253 -375.422 430.359
7270 2 -7.94656 -86.6671 -20.362 -24.6704 99.2677 -178.721 5.41902 -91.0717 -163.661 -82.2773 404.364
7190 1 -12.5194 -86.8538 -20.6312 124.695 -136.896 241.989 63.6143 104.437 225.608 -375.019 557.162
12181 1 -10.084 -85.7337 -15.6061 163.749 -306.763 187.852 114.941 161.505 54.3763 -365.347 600.05
14297 2 -12.5034 -85.2659 -20.6711 -48.1962 57.5911 -101.385 -8.93606 -67.2368 -109.435 -79.8721 263.395
17273 2 -11.575 -85.516 -15.1627 -59.2546 115.177 -108.781 -20.8398 -22.7771 2.53951 -85.5967 210.705
7658 1 -8.28616 -85.1556 -20.7437 -20.1441 -112.677 264.298 12.4689 171.979 288.771 -366.761 674.65
4808 2 -9.4365 -84.9427 -16.8612 -84.5799 109.578 -71.6021 -31.6802 -132.598 -65.4426 -81.595 322.416
2466 2 -8.85614 -84.4745 -19.3945 -23.441 62.0774 -82.136 -34.532 -114.448 -94.884 -82.1599 292.676
7478 1 -8.39801 -84.2881 -17.8562 151.237 -161.681 130.748 102.095 296.438 144.62 -371.596 670.497
4428 2 -8.47786 -82.6962 -17.4221 -91.5389 68.686 -36.6996 -42.7115 -132.274 -36.107 -80.7133 285.948
11915 2 -11.5805 -82.657 -19.7606 -45.1662 56.8112 -92.7871 -10.7035 -69.0667 -52.59 -80.0689 201.184
4620 2 -10.6849 -81.9535 -16.1524 -118.923 74.5916 -34.819 -44.1055 -76.5456 -42.7239 -81.764 239.031
4804 1 -9.48973 -81.4878 -17.2097 173.334 -124.852 53.8832 78.649 197.248 92.9631 -373.892 478.297
12098 1 -11.2419 -81.1263 -19.8048 68.5489 -140.932 194.526 78.7351 167.393 70.7625 -372.44 451.468
4856 2 -10.187 -81.0018 -18.5624 -57.6206 67.9081 -45.1955 -53.5093 -91.9059 -49.6364 -81.0062 235.952
14508 2 -7.02209 -85.1613 -17.6537 -69.828 82.4758 -80.9637 -32.0487 -146.078 -93.7701 -82.8512 344.228
12112 1 -1.28236 -86.5989 -15.4912 31.875 -35.4092 311.515 -117.051 273.082 123.29 -384.648 641.846
12384 2 -5.02003 -86.5591 -18.8956 -71.2837 93.7799 -82.1705 14.6572 -154.934 -128.673 -85.379 389.217
14899 2 -2.41538 -86.1717 -19.087 -24.6883 27.7974 -88.2431 -31.9417 -89.0834 -52.0697 -86.5202 212.443
11895 1 -5.68927 -86.1217 -17.5119 148.741 -199.914 158.344 -40.0024 272.817 247.042 -367.749 732.242
14689 1 -3.80096 -85.9347 -19.8214 101.721 -98.8766 135.78 65.0778 245.034 206.162 -356.54 607.099
9792 2 -4.49823 -85.1637 -16.9191 -65.6116 50.413 -73.1754 24.0647 -120.876 -55.4094 -82.139 263.016
12008 2 -2.03999 -85.195 -15.9448 -44.0572 49.5388 -135.144 27.8368 -135.499 -6.76634 -78.6924 288.313
2135 2 -4.32021 -84.4789 -20.0805 -52.3025 41.2463 -74.0516 -30.8066 -112.573 -113.181 -91.6995 300.921
17293 1 -3.35495 -84.2791 -16.2338 157.879 -153.551 164.088 -56.2232 273.751 -32.4517 -376.1 580.019
9600 2 -2.88092 -82.988 -17.0632 -86.2962 86.2795 -62.2862 32.4998 -99.1349 21.8651 -80.1959 245.564
12195 1 -1.73049 -82.3563 -18.0308 222.471 -215.572 85.7546 -16.1643 67.0758 -13.6167 -367.982 406.846
2406 2 -2.36 -81.9111 -19.4527 -91.6092 97.1798 -30.1077 9.55121 -31.9701 4.89356 -88.3664 176.705
7266 2 -5.64534 -82.1339 -20.6477 -21.4581 77.3108 -89.1801 -56.2943 -114.032 -31.2467 -91.3642 269.215
12297 2 -6.79029 -84.418 -21.077 0.231368 35.0535 -123.028 -40.9588 -134.137 -137.429 -90.2538 369.281
17377 1 -1.93128 -81.437 -20.927 144.018 -201.451 118.769 6.35097 40.3638 -95.6444 -344.643 379.099
17506 2 -0.83619 -81.2284 -17.362 -120.148 67.0674 -31.0835 19.3585 -12.1828 36.3159 -82.4441 178.42
9975 1 -6.45721 -80.7276 -20.9297 21.0636 -114.745 191.7 138.126 186.325 -46.3699 -354.449 488.438
17185 1 -5.33384 -83.6818 34.7773 50.6797 -107.561 181.277 119.911 283.775 201.542 -346.007 685.083
14597 2 -0.666078 -83.5113 -18.331 -70.0947 111.939 -106.622 -39.6464 -28.1366 -13.2633 -84.3571 220.767
14316 2 0.302653 -86.5388 -15.2708 -26.0266 -13.6135 -142.055 51.2971 -44.0551 -27.5892 -72.4412 176.231
12272 2 2.83504 -85.9815 -19.8679 -86.8438 87.0501 -72.1473 12.3798 -14.8546 48.943 -86.1347 190.283
19907 2 2.47751 -85.897 -16.9585 -50.616 -17.8512 -135.969 15.4556 9.36243 31.0818 -79.8539 122.61
14502 2 0.109546 -85.8248 -18.3568 -52.3339 -0.346564 -114.301 -25.0332 -68.4007 24.094 -86.4948 165.595
9577 1 1.58881 -85.5657 -15.5206 112.537 43.7778 200.12 -51.8757 -50.0665 -91.0725 -383.343 242.686
7276 1 3.01892 -85.2883 -18.4095 43.8049 -26.9839 225.665 -94.2973 10.2113 -100.053 -367.995 328.6
19605 2 4.51149 -84.8733 -18.2693 12.9176 45.1729 -130.967 78.1305 32.7828 31.6439 -82.6102 225.667
12484 1 0.577514 -84.4113 -17.8241 83.3264 -89.0552 264.311 52.2189 59.1446 -55.5409 -366.602 348.709
12009 2 0.782219 -84.3329 -16.2465 -43.0011 43.2974 -128.398 -1.7604 -0.208508 80.3349 -79.0574 203.667
19781 2 1.98481 -84.0326 -18.4479 -8.71867 46.4255 -123.495 15.0817 -12.6403 13.624 -82.9362 155.764
29717 2 -0.312021 -81.4117 -20.8772 -38.474 97.8336 -103.872 -17.2456 -4.57097 61.7303 -92.4297 210.137
19670 1 10.3758 -86.8379 -20.5395 155.129 -263.092 184.427 -76.6686 -120.553 84.5186 -356.959 520.273
17074 2 8.30031 -86.7194 -17.6189 -142.706 202.142 -118.195 6.60969 71.5092 -41.7009 -86.2904 362.983
12294 2 9.43872 -85.7886 -19.7013 -88.1664 178.017 -104.862 6.92953 53.509 -10.678 -89.5319 290.95
7179 1 8.57984 -85.3616 -18.421 177.684 -415.62 268.405 54.0361 -91.1499 16.3713 -356.135 669.741
22365 2 7.14112 -84.6672 -18.6767 -58.1552 147.632 -136.285 1.9089 72.1465 -2.52213 -88.4408 283.154
14770 2 9.34842 -84.2901 -17.4853 -73.0059 153.348 -124.347 -31.5063 44.5165 -32.5394 -92.2097 278.555
17392 1 5.78898 -83.9319 -18.1441 46.1502 -139.916 222.966 -132.178 -79.9197 -22.0987 -360.244 414.515
17195 2 5.96754 -83.5675 -16.6507 -53.3851 47.6428 -83.1961 33.8971 -9.50846 5.73789 -85.8752 133.881
7496 2 10.5822 -83.0314 -15.6602 -48.6373 117.492 -56.4783 -29.6803 37.8269 -45.4414 -88.7634 205.166
17290 2 10.2598 -82.9424 -20.5977 -13.4399 91.4455 -48.7098 -33.8168 60.9696 15.2933 -95.1118 176.716
22285 1 9.42403 -82.9466 -16.6797 103.749 -246.199 180.955 74.6155 -82.2598 65.312 -349.06 453.036
17208 2 8.11054 -82.5064 -15.9139 -106.492 81.8683 -43.5137 -13.9264 7.10288 -30.0621 -91.1967 176.147
19791 1 6.51229 -82.4095 -15.7188 154.136 -57.4268 68.5982 -8.0982 74.1055 46.1865 -359.099 238.852
14988 2 5.75689 -82.4531 -18.7488 -42.2476 63.8316 -80.4095 52.8076 46.8929 10.629 -91.6504 179.05
17207 2 7.65496 -81.9678 -20.2921 -73.175 47.0792 -40.7166 11.7385 75.0036 29.0066 -99.1219 177.272
17500 1 6.10804 -81.6523 -20.0566 107.342 -132.426 108.902 -50.1468 -147.3 -65.5993 -343.069 378.697
9886 2 9.57754 -81.6572 -17.759 -27.0607 131.937 -117.278 -15.6833 34.4573 4.62508 -98.3832 228.315
19778 1 9.11739 -81.7654 -20.9511 64.1916 -80.7455 39.6673 16.078 -118.624 -80.6494 -338.792 283.826
24850 2 16.0999 -86.8586 -19.2472 -57.7733 182.858 -176.447 -8.66603 86.1684 6.88825 -86.4218 350.979
22084 1 16.9274 -86.8598 -17.859 86.8336 -388.151 367.583 -26.4955 -140.296 -14.9747 -364.3 706.831
7206 2 13.033 -86.43 -17.7858 -62.3246 175.693 -92.7614 37.6906 42.0674 -27.293 -89.5082 276.819
14875 2 16.4732 -85.6398 -16.9091 -45.1912 143.892 -151.434 35.9753 75.0728 -25.2054 -87.679 299.708
19885 1 13.0778 -84.8293 -17.7898 93.1089 -244.387 195.734 -67.1374 -101.162 40.2546 -348.071 456.241
19893 2 12.7812 -84.2929 -16.2927 -51.2298 89.8452 -70.6719 36.1809 31.6862 -61.6111 -90.5926 203.347
17367 1 16.469 -84.3886 -15.8979 32.8883 -158.308 223.805 -105.061 -156.781 71.9903 -359.144 481.57
20254 2 12.0565 -84.1958 -18.8268 -34.4118 121.067 -132.898 8.17039 40.6215 -8.44223 -95.5895 233.56
22268 2 14.4585 -84.1948 -18.2523 -41.5246 94.8718 -148.127 22.0735 86.6015 -5.37837 -95.5434 261.832
19687 2 15.4915 -83.5509 -20.6187 -21.9344 46.1414 -65.3806 39.6948 72.1863 34.4032 -89.7358 182.729
22215 1 12.1022 -83.3817 -15.1957 122.292 -203.805 85.6083 -33.6332 -45.2603 139.075 -360.299 404.088
17285 2 15.5147 -83.0705 -15.6891 -28.5697 60.9511 -94.1802 41.1062 80.3589 -10.6977 -89.3962 207.31
6975 1 11.7439 -83.1959 -20.0305 18.3817 -222.399 195.084 28.282 -130.773 -11.5986 -343.18 431.108
14894 1 15.4871 -83.0771 -19.0803 -15.7922 -136.731 318.85 -52.4356 -194.01 -17.2186 -345.588 537.718
24953 2 16.9621 -82.9016 -18.5449 82.5849 28.5864 -183.63 48.0864 72.6853 -11.0332 -92.2713 287.337
22386 2 13.1366 -82.1084 -15.1954 -26.1601 102.913 -72.4573 22.9088 34.0357 -22.2542 -87.6071 176.959
19600 1 14.7066 -81.8024 -15.131 57.612 -133.776 131.573 -51.3106 -182.907 -3.84235 -358.872 405.662
14913 2 12.2812 -81.7916 -19.5493 1.62481 122.661 -130.924 -2.42398 65.5992 -1.27813 -97.7353 247.375
7521 2 14.6894 -81.7334 -18.8723 -29.975 99.8584 -160.046 18.1564 95.7304 -5.26638 -96.8775 281.474
14602 2 22.4879 -86.1962 -16.1953 -14.9686 71.449 -131.423 22.2177 -1.74457 49.2614 -87.1096 199.658
27340 1 22.1475 -84.6046 -16.2282 57.4395 -164.439 224.597 32.8819 -61.6483 -97.2239 -354.333 396.564
24801 2 20.6591 -83.9767 -16.0665 3.8554 44.1334 -106.493 28.1145 52.0411 16.8166 -90.1422 172.012
19692 2 22.639 -84.098 -17.6894 -51.0259 70.5684 -95.3126 -64.4973 25.2556 38.8328 -91.6651 202.605
22376 2 17.8806 -83.7702 -16.4395 50.6888 32.0786 -142.372 70.2026 82.8662 -10.6222 -89.2292 264.102
27286 2 22.9686 -83.9245 -15.032 -43.1071 43.3983 -73.3256 -11.4561 54.3062 59.6084 -90.5002 175.816
24910 2 19.1237 -83.7312 -19.0453 63.875 2.90703 -143.116 66.9238 30.5595 -13.0087 -88.1318 225.141
22100 2 21.394 -83.282 -19.8848 -23.1505 8.86486 -60.8171 -38.3552 -1.72474 -1.81263 -89.573 89.8988
22371 1 19.8544 -83.1529 -20.3063 -39.2688 44.7433 143.137 -59.2971 -18.304 -6.41518 -360.437 191.527
17582 1 22.6755 -82.9506 -18.9341 126.741 -99.9177 89.7659 109.609 -1.97211 -24.9395 -354.202 286.846
19876 1 18.3682 -83.1034 -17.84 -185.298 1.12976 331.6 -123.686 -118.123 25.7865 -352.281 543.437
22393 1 20.1046 -82.454 -15.7447 -9.58787 10.1185 120.716 -82.6488 -140.407 -61.4079 -351.192 325.188
14637 2 19.3382 -82.0162 -17.119 52.7549 -6.9312 -105.607 41.889 71.0346 -3.40572 -92.0512 199.062
24989 2 21.6273 -81.8494 -15.5356 -50.9859 39.6108 -54.2988 33.0604 70.4274 35.584 -93.7033 174.575
17277 2 19.5413 -81.5891 -20.3911 0.0219821 11.4479 -96.4869 24.6667 8.93851 -13.3708 -88.1324 114.667
17707 2 22.559 -81.4344 -18.4743 -82.3671 83.0129 -58.7163 17.2779 36.8277 9.81 -90.2044 171.031
24781 1 23.039 -82.2372 -14.8948 70.1052 -86.2677 138.457 -32.865 -155.059 -88.9647 -349.541 372.729
27262 2 27.171 -86.4587 -16.676 34.3583 -57.6526 -80.9218 -88.7434 94.5415 11.1169 -85.9121 248.917
19968 2 25.3337 -86.3472 -18.5583 -22.9111 -38.1041 -97.1078 -23.9965 31.2125 19.1986 -92.0115 101.807
24771 1 28.8093 -86.0609 -19.7158 -73.3758 58.2613 163.813 -6.51905 -83.9486 155.894 -364.466 369.516