ITEM: TIMESTEP
460000
ITEM: NUMBER OF ATOMS
29952
ITEM: BOX BOUNDS pp pp pp
-2.5215326849417927e+01 3.5200621184295613e+01
-7.5180843775494196e+01 8.5166138117494199e+01
-2.0972667834995136e+01 3.4840520979710341e+01
ITEM: ATOMS id type x y z v_StrAtomXX v_StrAtomYY v_StrAtomZZ v_StrAtomXY v_StrAtomXZ v_StrAtomYZ c_PEAtom v_VMS
20195 2 -23.5175 -70.4037 -18.9747 -44.7518 35.9139 -24.3494 14.3721 25.7208 -72.4258 -92.2357 153.682
27284 2 -21.2706 -70.6099 -17.4691 -85.2781 63.0613 -36.5313 -3.634 -37.0284 -90.9892 -90.314 214.802
19985 2 -23.62 -71.0829 -16.0403 -134.471 76.0004 -31.8674 -3.83097 52.0352 -96.9686 -92.9919 263.83
29859 1 -22.3631 -71.3481 -18.4373 138.447 -102.142 45.8674 26.9721 38.3606 167.054 -353.255 366.74
4782 2 -21.6849 -71.9592 -19.7022 -43.9688 30.9465 -35.1727 -26.5579 -29.1228 -73.3336 -87.729 160.7
29836 1 -23.0851 -72.6118 -16.0346 250.927 -257.027 22.357 47.0717 -87.5491 323.123 -348.928 732.82
29860 1 -20.7348 -72.5169 -20.8843 101.171 -21.766 59.1467 52.2511 56.6129 175.533 -365.342 349.219
2300 2 -22.9489 -72.6495 -17.6406 -82.4804 77.2668 -0.0850893 -22.5706 9.18636 -123.411 -89.7971 258.105
24865 1 -24.6966 -74.5954 -20.7437 31.9132 -43.47 79.6657 15.7092 -125.903 135.03 -367.198 338.462
9682 2 -23.2999 -74.8685 -20.0415 -28.8817 41.7415 -35.5117 -3.2594 66.0858 -86.2034 -82.6101 202.304
29879 2 -21.0977 -74.0889 34.6364 -34.3191 0.843185 -29.0827 2.19932 -10.2036 -72.0107 -80.9419 130.243
27180 2 -24.2016 -73.4193 -15.1779 -91.9083 135.653 -38.3187 -2.78122 95.6632 -167.383 -95.211 392.415
2022 2 -25.094 -70.2111 34.7043 -30.8242 15.7179 -13.4064 62.1801 55.5949 -47.8883 -89.5452 171.494
4727 2 -19.1925 -72.5734 -20.3344 -31.4591 5.64272 -63.0127 -49.0587 -23.1232 -93.9761 -84.3939 197.134
29581 1 -21.7619 -75.2789 -20.2441 83.8807 -65.7482 61.1773 -30.6235 -40.7103 165.202 -371.851 330.406
22398 2 -20.2637 85.1873 -16.4794 -8.46563 24.1709 -0.465062 3.85936 -87.0231 -101.157 -91.9513 233.088
29766 2 -20.9242 85.0443 -18.8808 -55.6704 30.6768 -8.91765 9.86191 -22.6676 -121.854 -85.2288 227.997
29762 1 -19.6394 84.8882 -17.9068 -6.89582 8.67827 37.2356 -4.05983 126.001 257.76 -361.283 498.499
27656 2 -21.7835 -73.3459 -15.4304 -123.669 102.405 14.416 -14.3822 3.10357 -133.293 -94.2356 304.811
25118 1 -25.0049 -70.2098 -19.486 81.5684 -80.5728 19.7015 -74.4281 -112.593 103.704 -353.575 327.108
29920 1 -24.4954 -69.7215 -15.6727 191.006 -146.528 89.9237 38.3019 -141.928 107.218 -351.816 435.141
22477 1 -21.0175 -74.7522 -15.1383 100.398 -126.493 4.2577 -40.4988 87.6391 118.961 -337.979 330.645
7398 2 -15.7359 -70.6663 -18.9464 1.71287 40.9258 -129.131 -33.8479 13.9559 -51.7803 -81.2004 189.35
4717 1 -15.5461 -72.2472 -18.9501 13.6797 -58.3939 190.556 63.5597 -14.1992 187.126 -370.86 408.657
29673 2 -14.0557 -72.4168 -19.509 -26.7373 26.2231 -58.3138 -14.6798 -31.1144 -78.1969 -81.5799 165.437
27245 2 -16.6822 -72.9885 -19.7632 14.4908 -14.8001 -84.5329 -43.7335 0.606092 -87.3919 -82.1473 190.825
27437 2 -15.6542 -72.9379 -17.4997 -19.2722 16.0088 -65.5101 -30.0486 17.703 -105.782 -83.2789 205.505
27469 1 -18.1568 -73.645 -19.822 -17.5326 68.4826 150.317 90.7788 26.8407 194.384 -368.762 401.713
9511 2 -14.1929 -74.2 -15.9133 -21.1344 -8.31816 -55.4014 16.3716 -3.94529 -23.4114 -91.463 65.3662
9782 1 -15.2913 -74.365 -16.9914 17.6589 45.2736 101.245 59.7555 -5.43217 163.715 -358.157 310.884
7113 2 -18.6758 -74.3395 -18.4215 29.3366 -23.7533 -59.6052 -24.5073 -34.7966 -132.443 -84.3583 253.11
2286 2 -18.1458 -74.8447 -20.8213 -24.0432 -41.4184 -21.7553 -53.7962 -39.1125 -61.9266 -79.6756 158.502
89 2 -14.4578 85.1692 -18.1897 -47.9922 -0.925077 -30.6441 -56.8387 -30.6469 -62.2239 -88.1326 160.701
5003 2 -16.4132 84.907 -16.4276 83.3469 -59.215 -67.4083 -10.6764 -30.8997 -59.463 -89.0457 188.077
7203 1 -12.9045 -72.5718 -20.5738 57.9113 -21.0179 65.8667 19.3456 103.791 117.803 -373.775 286.346
4856 2 -10.2049 -70.1073 -18.937 -57.8431 57.3113 -15.2413 -45.8872 -99.8138 -65.6051 -86.0754 243.489
12098 1 -11.1508 -70.1357 -20.2033 6.99744 -90.0348 56.5083 51.0107 108.312 73.4573 -368.297 275.426
4804 1 -9.67033 -70.5066 -17.5066 161.201 -138.637 -10.3764 67.409 228.297 135.786 -358.201 541.479
4620 2 -10.9619 -70.8986 -16.4845 -101.276 81.4661 -3.40671 -29.8717 -76.3737 -72.5063 -90.2849 247.054
11915 2 -11.73 -71.647 -20.0392 -11.2658 27.0176 -28.0252 -3.26143 -43.6087 -41.9809 -81.1017 115.812
4428 2 -8.75091 -71.7588 -17.7012 -86.9645 70.3229 -7.05677 -43.1032 -155.446 -49.2785 -87.9768 322.344
7478 1 -8.55313 -73.3284 -17.9896 123.126 -143.405 32.0207 97.6147 340.367 123.804 -358.411 690.778
2466 2 -8.87005 -73.648 -19.5734 -30.4888 39.2551 -16.3339 -29.7395 -109.122 -67.4853 -86.0712 236.888
4808 2 -9.63958 -74.0421 -16.9964 -52.9175 78.9012 -31.8305 -41.3614 -147.124 -46.3023 -89.6413 302.558
12181 1 -10.1999 -74.6782 -15.6516 106.92 -232.058 127.297 93.7054 213.843 2.50671 -346.047 534.581
14508 2 -7.11185 -74.0144 -17.8463 -52.5678 54.4774 -34.4443 -40.8493 -167.586 -73.7797 -90.1767 339.763
14596 1 -11.8874 -70.968 -15.198 214.809 -215.934 47.9795 46.1174 81.9651 116.324 -349.241 456.772
14297 2 -12.6583 -74.1111 34.8635 -36.1961 1.56505 -41.1681 -19.4993 -59.9521 -94.6063 -81.5201 201.03
7658 1 -8.33071 -74.2088 34.895 -38.284 -51.5011 125.46 4.62246 162.145 232.372 -360.221 519.691
17273 2 -11.6953 -74.5237 -15.2594 -29.7397 69.0126 -78.3033 3.17516 -41.5335 18.6851 -95.518 152.181
27476 2 -13.091 -69.9132 -15.2673 -75.1522 101.551 -36.8546 -45.7766 -14.9499 -66.6555 -88.7948 214.963
17361 2 -7.02551 -69.7776 -15.0146 -48.1666 23.1958 29.4164 -3.34345 -74.5354 -47.196 -87.8598 170.17
2406 2 -2.56833 -70.808 -19.5265 -75.3041 79.4182 -3.41761 11.9175 -45.4158 -15.872 -93.9622 159.229
12195 1 -1.92079 -71.3242 -18.1516 185.112 -141.238 15.1164 -48.3992 79.0619 17.8616 -356.424 326.591
9600 2 -2.87797 -72.0547 -17.0829 -71.8527 33.6739 -15.7376 43.2333 -94.704 20.3608 -86.989 205.233
17293 1 -3.40278 -73.4134 -16.3591 117.408 -84.4023 75.0058 -83.7938 282.501 -47.1401 -361.387 548.743
2135 2 -4.28876 -73.5377 -20.2875 -82.9295 36.1973 2.11312 -15.178 -135.071 -63.5493 -97.8106 280.77
9792 2 -4.55431 -74.1528 -17.181 -60.5306 27.216 -29.5957 24.0925 -128.853 -35.9293 -90.0873 247.72
12008 2 -2.09888 -74.2764 -16.1142 -16.6846 24.4178 -97.4925 21.7845 -125.985 1.76178 -84.0964 246.151
11895 1 -5.77344 -75.024 -17.7561 125.276 -133.467 63.7677 -26.9742 312.467 186.053 -351.637 673.612
14689 1 -3.86336 -75.0825 -20.0059 138.862 -66.0789 18.9306 60.251 282.266 152.34 -343.104 592.739
7266 2 -5.64609 -71.2103 -20.9602 -28.7306 82.9602 -32.6165 -65.5059 -115.618 -20.4647 -96.1161 259.145
14899 2 -2.49182 84.992 -19.217 -26.2248 13.4325 -27.4283 -33.4725 -99.0148 -24.6786 -91.769 190.321
9828 2 -4.09334 -73.004 -14.986 -99.5615 53.5425 -8.41171 51.0925 -150.457 69.7566 -84.533 328.839
17506 2 -0.797042 -70.267 -17.5025 -127.87 32.2698 13.0831 26.9927 -19.4959 14.2795 -86.8436 163.946
14597 2 -0.839376 -72.4576 -18.6684 -55.546 88.0804 -44.5879 -23.843 -26.0058 -12.5555 -88.8686 152.912
19781 2 1.76228 -73.2948 -18.8671 27.5056 35.067 -82.7808 -18.9406 -12.7532 17.0152 -84.0523 124.446
12009 2 0.770719 -73.2314 -16.5943 5.39097 9.31456 -100.266 -27.5916 18.9608 74.0396 -81.7125 177.205
12484 1 0.310603 -73.3352 -18.1538 1.1673 -67.3023 204.042 89.3268 35.245 -45.2582 -362.573 305.854
19605 2 4.2999 -73.9176 -18.477 33.061 26.8529 -106.523 39.4906 41.3319 24.8185 -82.8898 174.089
7276 1 2.81726 -74.5372 -18.6345 -30.0676 5.12166 187.718 -5.01385 -19.3044 -103.926 -367.566 273.131
9577 1 1.52276 -74.4022 -15.775 -7.52022 80.6242 152.908 28.398 -106.284 -106.219 -377.851 299.201
14502 2 -0.0781068 -74.8677 -18.5805 -13.6774 -6.7514 -92.1091 -46.2303 -44.7393 41.7704 -88.1378 156.184
19907 2 2.34721 -74.972 -17.1155 6.16864 -33.8824 -95.5338 -28.342 26.8616 44.9891 -80.8895 136.091
29717 2 -0.546499 -70.3296 34.826 -38.4637 44.2853 -64.9679 23.81 -0.145595 59.1509 -98.1039 148.123
12272 2 2.73511 -75.2812 -20.0652 -30.4405 66.9284 -73.6477 -15.6974 5.17435 56.7756 -86.2425 161.383
17095 2 1.10629 -69.5231 -15.7122 -18.7793 -18.504 0.170367 11.1525 -19.9933 14.0863 -83.4093 50.2151
17500 1 5.92925 -70.7722 -20.3402 34.8331 -130.399 135.237 -4.02419 -175.736 -104.83 -346.38 423.838
9886 2 9.45959 -70.6642 -18.1062 -10.7454 127.47 -119.116 -32.1369 45.5253 20.0548 -97.4483 237.379
17207 2 7.4814 -71.1466 -20.4111 -46.9763 54.173 -50.4749 -14.519 86.792 46.7093 -95.9915 200.932
19791 1 6.40497 -71.3005 -15.873 76.0206 -91.04 83.0434 -21.255 71.1824 97.5684 -360.373 272.483
17208 2 7.92688 -71.4639 -16.3866 -64.2332 95.5527 -72.6071 -1.4899 16.7919 -34.9584 -91.9248 177.365
14988 2 5.47338 -71.511 -18.9955 -8.49634 82.7636 -87.2035 27.6567 62.8113 3.7324 -89.3376 189.416
7496 2 10.5882 -71.6972 -15.9596 -8.57848 103.203 -81.1375 -23.8668 58.9922 -26.1925 -90.9513 200.195
22285 1 9.37727 -71.814 -16.973 38.883 -249.942 193.524 55.2872 -94.6389 28.3466 -348.235 436.404
17195 2 5.54768 -72.326 -16.7078 -7.34005 41.9719 -53.2669 26.672 -7.72692 -9.58884 -84.5181 96.9269
17392 1 5.51945 -72.8871 -18.2112 -7.95712 -129.51 204.365 -81.4185 -92.5586 2.12859 -362.879 362.306
14770 2 9.21707 -73.2695 -17.5412 -38.6621 139.512 -101.418 -7.5417 42.5223 -24.4003 -92.253 232.91
22365 2 6.88219 -73.637 -18.5105 -39.7464 124.353 -116.05 -2.70011 64.6709 -5.93799 -88.5952 240.722
7179 1 8.31076 -74.3563 -18.3917 131.646 -319.29 208.778 13.7164 -90.0158 35.0839 -353.066 522.15
17290 2 10.1811 -71.9099 -20.7275 19.0711 68.9652 -60.2165 -30.6515 60.3752 25.9596 -94.3783 168.842
12294 2 9.06901 -74.7044 -19.7524 -47.3355 127.419 -81.3867 25.5696 52.0002 -14.45 -92.0512 219.884
19778 1 8.9678 -70.901 34.7719 -1.14281 -82.9064 48.1538 43.8974 -122.667 -109.739 -344.693 316.538
17468 2 6.14671 -69.7527 -16.2028 3.5088 54.6327 -79.2314 -5.94576 -33.3871 -56.7787 -89.0003 163.741
12574 2 9.26839 -69.5058 -20.3103 12.2665 82.0049 -67.0204 -1.19741 36.4862 70.8216 -96.8514 189.009
7521 2 14.6675 -70.8126 -19.2875 17.1514 87.6006 -136.619 18.238 80.1845 7.53675 -94.533 244.742
14913 2 12.1917 -70.8657 -19.7424 -0.60529 104.303 -117.236 -16.3197 50.7208 10.4612 -96.0175 213.75
24953 2 16.8214 -71.9996 -18.7553 126.428 -18.0634 -140.178 63.4345 50.074 -0.448527 -93.4431 270.238
14894 1 15.3688 -72.2328 -19.358 -116.645 -50.1881 254.344 -74.1136 -163.053 -33.494 -344.901 465.829
6975 1 11.6887 -72.2885 -20.275 -22.4647 -137.682 187.599 20.4835 -125.176 -28.8709 -342.583 363.828
17285 2 15.4897 -72.3904 -15.9035 13.5738 35.9406 -58.3652 26.9082 69.6378 -1.50288 -91.8292 154.957
22215 1 11.9468 -72.2877 -15.3777 35.0487 -151.201 113.189 -29.7038 -79.5113 75.9265 -355.121 307.011
19893 2 12.6157 -73.3203 -16.4709 -16.3042 59.1639 -46.6127 35.0972 35.7763 -32.4217 -92.3994 139.965
22268 2 14.4104 -73.295 -18.5145 -2.25538 46.5545 -107.181 24.6453 80.7456 11.5085 -97.0072 200.729
17367 1 16.616 -73.5092 -16.0572 -27.4522 -114.226 127.825 -103.548 -109.657 54.6767 -353.284 349.749
20254 2 11.9188 -73.2854 -19.0145 -15.3801 71.4527 -105.66 11.673 34.4203 2.74225 -96.8049 165.877
19885 1 13.0017 -73.8684 -17.8976 26.6429 -148.332 122.098 -66.1196 -87.4529 19.3583 -344.455 305.963
19687 2 15.2498 -72.6806 -20.9221 3.42983 -5.91042 -55.1694 45.4488 46.3662 22.2034 -92.3052 130.763
14875 2 16.3809 -74.7968 -16.9864 -10.2312 112.934 -89.0055 41.8481 69.2024 -31.6104 -90.8075 231.723
19600 1 14.7035 -71.0319 -15.379 0.805353 -107.414 115.28 -44.5698 -165.64 -13.4859 -352.169 354.992
22386 2 13.0998 -71.186 -15.2884 4.45063 50.237 -70.9254 20.667 54.5476 2.0573 -90.4236 146.457
24766 2 14.2432 -74.9469 34.4703 -66.8285 27.2625 -50.3437 22.5373 56.7095 -8.23435 -94.7272 137.655
24685 1 13.4143 -69.8794 -19.7206 36.1303 -254.76 229.909 -3.52699 -141.497 25.32 -345.305 490.47
19997 2 14.9501 -69.8394 -16.4469 6.8562 62.2829 -81.0947 5.24452 74.214 10.4046 -93.1335 180.59
17707 2 22.4583 -70.7039 -18.8676 -54.7573 66.8662 -28.8478 3.76501 12.5252 -2.02447 -97.6288 113.304
14637 2 19.4152 -71.1288 -17.454 42.6311 -14.5257 -76.4727 12.858 14.7958 -5.93369 -96.6433 109.103
24989 2 21.7406 -71.1511 -16.0248 -27.7281 23.801 -36.7239 -2.19647 33.6916 27.4922 -99.3729 94.271
17277 2 19.3401 -70.7924 -20.8021 15.7724 -24.7676 -74.6378 16.8222 -4.73505 5.39935 -92.8156 84.5928
22393 1 20.2052 -71.6908 -16.1336 -63.3476 55.3932 44.4131 -25.7936 -25.9578 -37.4015 -340.353 145.362
19876 1 18.3254 -72.1441 -18.1475 -232.519 73.3529 221.029 -126.911 -49.0273 32.6145 -345.254 468.249
17582 1 22.6332 -72.2918 -19.374 72.9494 -5.77545 -12.2653 102.974 35.946 36.4898 -334.081 215.482
22371 1 19.7246 -72.3614 -20.6978 -103.365 146.284 58.608 -73.7458 -2.30474 17.2283 -346.518 255.627
22100 2 21.2972 -72.5595 -20.3278 4.34624 -39.2727 -12.4777 -36.94 -10.4099 -21.1503 -98.5414 84.9271
24910 2 19.0131 -72.8456 -19.3671 99.8914 -37.8998 -97.7161 58.3416 9.84618 -19.6229 -93.6993 206.067
22376 2 17.9101 -72.8439 -16.7347 74.4172 -4.1122 -94.8044 80.795 30.5186 -11.1398 -92.7166 210.39
19692 2 22.6845 -73.2898 -18.0732 -50.6974 25.1879 -49.0768 -63.1332 14.0226 13.9164 -102.434 136.991
24801 2 20.6984 -73.2577 -16.4225 23.0713 -2.58844 -74.4019 41.4117 -1.14638 0.858479 -96.9594 113.178
27340 1 22.182 -73.8524 -16.6289 43.4405 -103.203 137.366 17.8445 -8.5987 -39.5551 -334.579 223.541
27286 2 22.8316 -73.225 -15.3093 -27.4157 5.89498 -19.8911 -1.11621 28.0769 29.5162 -98.887 76.7975
14602 2 22.4087 84.8645 -16.6733 -6.82415 45.6674 -93.9926 62.8257 -28.6226 6.89343 -97.7268 171.379
24781 1 23.0438 -71.6105 -15.255 48.5568 -1.11786 74.4669 -3.96477 -90.8641 -69.3652 -336.946 208.989
24869 2 26.9135 -70.7287 -16.4228 -17.2365 77.054 -103.459 78.5608 -1.72123 -1.06159 -85.4084 207.323
24823 2 24.4193 -71.4297 -16.0683 -24.1654 36.6125 -74.9143 28.1635 49.5518 31.3181 -96.635 148.465
2209 1 25.9169 -71.9775 -16.1823 24.9285 -81.6649 160.726 -51.4986 -71.39 -72.488 -351.724 288.596
25149 2 23.8607 -72.5455 -20.3774 -37.0772 -4.35587 33.2806 -42.3749 -55.4622 -34.5869 -98.1699 148.063
27059 2 26.1012 -73.2217 -17.1945 7.59795 16.053 -65.7868 -22.6069 33.0152 52.9011 -92.9507 138.838
22354 2 27.748 -74.5825 -19.0988 77.922 -63.0263 -29.4529 -6.62864 16.8213 -44.3282 -91.5315 152.109
24577 1 26.5815 -74.6436 -17.9458 -130.67 121.212 102.351 66.6489 -65.8549 -30.0646 -344.933 296.813
24771 1 28.7635 85.0588 -20.1229 -167.352 115.396 94.7453 -33.8752 -107.846 164.629 -351.605 440.656
19968 2 25.3261 84.9303 -18.6382 16.7071 -68.7963 -67.2308 -15.1536 3.17226 13.3561 -101.134 91.835
4961 2 34.4696 -71.5634 -19.1016 -45.3871 -3.9049 -15.6551 40.4962 79.6626 -55.7246 -88.5082 186.133
20100 2 32.6215 -71.356 -15.7616 -12.32 90.6774 -161.091 -24.6949 42.5788 -66.7636 -80.8271 262.116
2367 1 33.765 -72.9935 -18.819 80.3227 -16.8526 -0.430972 -106.753 -179.773 148.778 -361.005 453.503
2320 1 32.7647 -73.0089 -15.8445 18.6411 -139.341 241.566 -32.985 -157.04 235.553 -366.135 594.622
27271 2 33.5379 -73.1948 -17.2461 -43.0922 35.7339 -45.2688 38.1977 96.2525 -117.518 -87.0676 282.829
2105 2 32.2908 -73.1494 -19.4545 -6.72466 -20.2841 -23.4281 55.286 101.032 -85.8939 -86.1304 249.322
2413 1 31.3345 -73.4252 -20.6692 -80.8868 41.1325 144.568 -83.3457 -155.23 200.502 -358.671 501.936
19704 2 31.3315 -73.8045 -15.6374 54.2858 9.89466 -110.505 1.64579 62.5703 -86.4898 -83.2413 236.656
2517 2 34.6875 -74.0665 -19.5852 -32.9103 20.8438 2.10048 13.0611 73.4433 -75.8977 -85.7753 190.285
27368 2 30.116 -74.4431 -20.2784 67.5652 -23.8765 -65.6514 53.5653 60.6752 -114.87 -88.3673 270.488
19777 1 30.9624 85.0126 -15.3527 -163.131 168.418 85.8406 54.9271 -186.217 119.945 -355.436 495.588
40 1 32.838 -69.7188 -15.6866 -19.0623 -127.181 260.446 138.616 -47.8258 50.3433 -370.237 438.341
2514 2 34.3972 -69.6977 -16.0476 -16.9444 56.0815 -133.991 -39.0821 63.0238 -38.9831 -87.8562 220.539
29643 1 -20.5539 -69.2313 -17.3281 74.7005 -29.0647 70.6075 -30.3117 65.2593 119.122 -354.964 261.653
4883 2 -20.6852 -68.7421 -18.8296 -38.0893 -9.71029 -27.837 -6.2819 -21.1029 -50.0968 -93.048 97.9948
7391 2 -23.8057 -68.4487 -16.4588 -91.9582 54.8094 -21.5076 -16.989 37.7677 -46.6328 -93.8219 166.833
36 2 -21.439 -68.2582 -16.4809 -85.0819 9.37954 13.6154 24.5807 -26.6957 -37.4151 -91.8299 132.255
2306 1 -20.6087 -68.0875 -20.2805 20.3709 96.0895 -30.8499 35.3612 41.1149 74.9711 -347.427 194.73
7516 1 -22.6761 -67.3008 -16.5374 180.179 -102.105 -37.7233 39.9566 1.85843 40.9246 -347.849 274.736
4999 2 -20.955 -66.585 -20.0319 -20.2292 -32.7992 4.66434 17.3027 -4.33383 -0.849897 -93.853 45.2467
7506 2 -22.3802 -66.3595 -17.7793 -40.6693 33.1031 -14.1598 -12.9114 -10.4238 7.0735 -93.787 71.8724
24747 1 -24.2883 -66.1704 -20.7788 43.0443 97.4025 -21.1087 105.501 12.5426 -7.24192 -347.57 211.136
7288 1 -21.8481 -65.5706 -19.1193 30.7236 -94.1999 51.2552 -37.1984 7.98782 -80.1183 -349.344 205.406
2120 2 -23.1828 -65.2327 -19.9903 -22.3217 15.5948 -4.15889 -26.2591 1.87731 46.7574 -92.078 98.574
4913 2 -20.4786 -64.7752 -18.5629 12.9514 80.7474 -67.3308 50.1317 -7.1779 28.8996 -91.2383 163.352
25037 2 -24.2234 -64.0169 -16.9774 -7.19605 50.2694 -51.0694 -27.9951 -4.63602 31.0329 -93.9154 114.25
2374 2 -23.4999 -67.5607 34.7091 -36.732 -72.1397 14.8865 -2.68958 1.51191 -25.8219 -96.2059 88.1744
29599 2 -22.7909 -66.6067 -15.142 -117.3 69.4549 13.2852 -27.9539 30.0179 3.43993 -92.0144 180.625
2381 2 -19.0991 -68.2928 -20.8242 18.1842 -55.1618 -0.57519 -2.5684 -25.8043 -34.9134 -89.7603 100.149
27239 2 -18.9386 -64.0682 -16.5624 13.0113 1.70395 -53.5727 -17.0362 -13.7214 -42.8346 -92.0394 103.674
2232 2 -19.048 -68.8402 -16.8903 17.8745 -7.89568 -42.3866 21.7112 -1.59898 -36.9356 -84.6964 90.8685
192 2 -16.8103 -69.4049 -20.9451 24.5348 -25.2756 -33.883 -7.21047 -9.31034 -67.5017 -83.3113 130.65
9903 1 -16.0194 -69.2142 -19.5011 -65.58 25.2999 153.543 22.3639 5.72414 98.7577 -368.862 259.265
4729 1 -18.9424 -64.811 -17.9734 -6.42132 -105.041 146.238 -52.8521 -13.8475 10.8897 -352.121 239.577
4796 2 -14.6704 -68.3701 -19.7632 34.7606 -43.4608 -39.7777 4.37791 -4.61789 -56.6101 -84.0275 124.818
29554 2 -17.0063 -68.3816 -18.4778 41.5636 -27.6589 -75.0803 -10.2089 -7.5037 0.985794 -84.5594 103.96
2679 1 -17.9286 -67.7501 -17.2821 -78.5768 26.3066 122.267 -43.5692 -44.111 -3.5299 -363.595 204.556
14839 2 -14.3936 -67.4914 -15.9213 23.0037 -29.7319 -37.5054 -63.2269 -9.86086 -42.2206 -88.554 144.512
4614 2 -16.8914 -67.2612 -16.1395 23.8306 -28.2609 -30.6538 -10.707 25.3013 -17.8071 -85.4688 77.8433
29943 1 -15.6251 -66.5361 -15.4687 -61.1469 67.2429 80.3807 113.922 9.32686 96.3433 -357.556 292.207
9809 2 -18.6096 -66.3452 -17.7801 14.0719 31.0512 -67.7287 33.0563 23.8552 2.40599 -88.9554 115.634
29768 2 -15.4603 -64.965 -15.7634 27.8096 -9.1517 -52.2575 -49.8997 0.0616924 -63.369 -90.4959 155.995
14903 2 -17.6753 -64.0679 -18.7009 -11.9405 4.65294 -49.142 -5.39164 -13.7446 -12.2057 -91.8597 58.1161
29738 1 -13.2418 -67.6832 -19.899 -65.6912 73.2347 33.198 -40.575 -1.43013 110.261 -361.662 238.24
5282 1 -13.0979 -68.3355 -15.3255 123.171 -68.0105 57.4557 125.1 62.9838 147.176 -351.93 390.05
12499 2 -13.1954 -66.7265 34.6612 40.7559 -53.9267 -26.0224 27.0535 19.3983 -50.9218 -88.1774 134.926
5102 1 -15.7128 -63.367 -15.7007 -67.0869 30.6709 88.4382 25.8655 -27.6638 127.372 -353.397 267.423
83 2 -8.80732 -69.3096 -16.7906 -73.8495 68.2023 11.5149 -15.2035 -109.097 -70.474 -89.5884 258.145
12679 2 -12.2605 -69.0152 -20.0974 -6.81461 24.7751 -44.5789 -15.5547 -30.2477 -45.0754 -84.597 114.817
9770 1 -7.4261 -68.7123 -16.1571 156.899 -70.3202 -80.0475 18.5773 193.881 130.563 -358.957 467.845
9967 2 -12.6898 -66.9756 -18.5765 -8.94064 -26.0055 3.20893 9.33219 -39.2841 -53.7843 -89.7884 119.228
4812 2 -11.8344 -68.1312 -16.378 -79.242 35.1729 2.70274 -37.9309 -64.4074 -80.8456 -92.2466 216.331
12674 1 -11.6179 -66.857 -17.3512 111.596 -0.324089 -48.2641 10.9323 147.533 143.609 -348.627 384.339
4821 2 -10.2676 -66.663 -18.2231 -43.3498 -28.982 12.1983 -18.0308 -86.4712 -67.3265 -94.3522 198.745
7297 1 -10.0666 -65.6115 -19.3974 90.3103 29.2426 -13.3739 65.955 151.542 139.339 -340.125 385.148
9884 2 -11.7607 -65.7277 -16.2818 -57.2916 15.7457 -1.40129 -18.0276 -80.2279 -55.1475 -94.0179 183.805
7400 2 -7.67674 -65.2227 -16.8417 -30.8877 -28.618 47.8 -6.20073 -54.4157 -27.6298 -89.5381 131.556
9801 2 -8.69653 -64.9189 -19.0972 -23.7527 -29.3063 -10.6672 -32.8301 -70.3629 -58.0214 -97.0919 168.702
7305 2 -11.1728 -64.5094 -19.2134 -90.5464 -0.0112015 14.6119 -43.8996 -87.1006 -53.851 -96.4323 216.738
4560 2 -7.62681 -67.2839 -15.4004 -83.7581 25.8142 34.0118 -2.8464 -58.2156 -50.5194 -88.8738 175.555
10104 2 -9.9103 -66.289 -20.839 -35.864 7.41021 -35.269 -38.4804 -58.5324 -38.8228 -96.2913 145.221
7405 1 -7.99917 -65.7472 -15.3535 71.3474 25.9099 -71.181 -6.49015 40.8113 23.7649 -356.466 150.732
2629 1 -7.24802 -65.0674 -18.3954 -0.597604 17.0145 32.9504 22.7895 120.457 94.8732 -349.536 270.065
12401 2 -10.7861 -63.3794 -15.6067 -77.3269 60.1642 9.19209 -38.203 -46.3372 -16.6299 -91.4995 161.689
25036 1 -11.5875 -62.9721 -19.1469 97.2911 -10.3807 -42.1128 158.485 145.574 37.7318 -344.498 399.019
27470 1 -11.0298 -64.8633 -15.106 117.789 -80.3135 9.7189 44.4637 111.078 66.7093 -348.151 292.935
27449 2 -9.55562 -65.5582 -15.0057 -21.4859 11.8181 -1.40295 -13.5839 -35.1941 -30.5716 -91.9799 88.9772
17673 2 -1.44697 -69.0357 -15.4991 -62.9889 -36.9987 48.0522 45.5856 -45.7567 36.8009 -84.8058 163.394
15067 2 -6.51335 -68.8192 -19.9302 -26.4436 49.9476 -43.2365 -69.4304 -107.424 23.4557 -92.418 241.106
9979 2 -6.3256 -68.4227 -17.3242 -57.8234 -8.22828 17.5201 -50.7159 -119.15 -34.6824 -86.9832 241.484
17209 1 -5.87247 -67.8856 -18.8202 16.219 -53.25 99.7204 108.791 235.336 -1.8785 -353.33 468.257
17107 2 -4.31419 -67.8178 -19.1841 30.4448 16.4399 -75.6522 -45.5662 -93.4399 18.7938 -91.4137 208.443
10096 1 -3.14899 -67.5469 -20.2572 -18.1899 -134.564 170.156 67.6684 128.768 -73.1502 -342.26 387.904
20285 2 -1.70709 -67.24 -19.5297 -26.7162 56.6541 -67.7035 -14.5332 7.07739 47.1765 -94.7841 139.673
10164 2 -6.43727 -66.3804 -18.7717 -3.10165 11.8836 -66.1771 -51.1382 -92.3102 -35.247 -92.2898 205.631
17951 2 -6.5012 -63.6846 -18.7399 31.9719 18.2663 -45.7281 39.1772 -30.2524 -3.15176 -91.5154 111.983
14720 2 -1.79226 -63.5747 -16.7776 -54.9225 -4.57221 20.9571 -31.9101 -26.3638 23.5593 -89.7625 106.195
19722 2 -1.73385 -63.1773 -19.3403 -3.76489 36.8438 -66.5227 -22.2918 13.9086 70.2875 -94.4203 158.203
7393 1 -0.220123 -69.1021 -16.5472 132.947 36.0561 -88.6386 -102.548 24.3917 -33.6807 -363.885 271.579
12204 2 1.7906 -69.1469 -20.2581 106.226 5.87821 -141.982 17.6867 28.9733 97.3212 -91.9175 280.43
27276 2 -0.056377 -67.8709 -17.5721 -34.0936 -4.35873 22.7975 43.7535 0.602884 22.2621 -87.9745 98.2859
20066 1 2.45178 -67.8142 -19.8286 -245.992 27.8937 278.512 -50.465 -63.7599 -195.383 -348.516 583.801
10031 2 3.1462 -67.692 -18.3625 97.6938 -32.125 -101.905 13.3954 -3.73088 51.8222 -91.5484 198.539
17542 2 1.0548 -66.9038 -19.7192 84.4764 22.06 -115.178 19.5676 43.0554 69.7672 -93.2307 229.365
12385 1 -0.267742 -66.8513 -18.7981 -25.2435 -77.4874 100.566 -15.9357 -67.4499 -123.628 -351.551 292.219
17461 1 3.97187 -66.7504 -17.382 -136.88 45.228 178.743 53.6693 108.327 -68.5443 -349.746 365.026
7558 2 2.97426 -66.5484 -16.0605 12.9941 -33.5641 -27.7458 -13.0816 -107.333 31.062 -87.9831 199.749
12186 2 4.12765 -65.3488 -18.1853 45.4022 33.183 -114.815 -21.8292 -34.9756 33.3941 -96.281 179.739
15081 2 -0.559656 -65.3544 -18.2892 -12.7398 71.8066 -43.2846 -25.073 19.9545 66.4279 -89.9535 164.262
7302 2 3.75396 -67.4063 -20.8373 87.5815 33.9336 -146.383 7.17837 33.8591 82.0168 -94.4246 262.374
22249 1 4.94839 -64.1055 -18.7934 -47.2416 -151.508 245 80.6439 12.8249 -17.6581 -337.238 384.301
24885 2 4.62304 -63.7141 -20.3173 21.0537 66.8397 -140.332 -44.2421 26.9286 0.603951 -99.0917 208.757
9904 1 -0.871206 -63.7989 -18.1623 29.128 -74.4536 75.0537 57.9891 5.26893 -99.4442 -351.407 239.655
15140 2 0.954344 -64.7349 -15.1514 -14.8497 -19.0818 -22.1627 -22.8811 -52.0501 19.9667 -89.0668 104.569
9711 1 2.3512 -65.7035 -14.8521 85.2675 -12.8855 50.0282 1.65259 209.497 -59.3327 -358.787 386.85
20559 1 9.0101 -69.2741 -18.7426 30.9646 -223.389 236.483 -2.43753 -102.226 -115.378 -332.943 480.117
22361 2 5.55558 -69.1837 -20.6002 11.8728 66.8275 -98.7089 -26.9522 66.8151 96.2906 -96.2554 254.388
12569 2 7.50752 -68.9157 -18.3266 -34.0162 86.3342 -129.707 -4.66208 76.2652 31.9992 -101.382 236.101
19888 1 6.71519 -68.386 -16.9872 -82.4794 -89.0682 256.821 45.7704 -45.0205 25.796 -341.335 362.995
7389 2 9.96143 -68.0387 -18.2278 7.96852 67.2856 -122.707 13.8753 36.065 40.9406 -103.21 194.56
22721 2 5.43637 -67.4344 -17.1421 89.8838 3.80091 -128.762 -63.2557 -6.69447 2.23472 -93.9742 220.336
19878 2 7.93892 -67.6508 -16.285 1.55562 28.4348 -131.298 20.3203 58.5193 -3.92636 -99.4269 183.036
14799 1 9.24911 -67.0271 -15.6936 94.1725 -38.7041 232.314 -33.8649 -123.888 5.65876 -332.831 323.537
19962 2 6.47848 -66.7173 -20.4953 -10.3816 74.3605 -110.059 -14.9188 64.616 30.117 -99.529 203.662
20030 1 10.1705 -66.4208 -18.4333 -22.5438 -6.01105 194.751 -46.4051 -45.7633 -21.5582 -326.928 240.905
14622 2 8.7914 -65.8771 -19.0306 20.1985 31.7968 -106.37 -12.4522 64.2404 -20.4917 -102.544 178.122
22378 2 10.2978 -65.9584 -16.748 -33.446 -4.13788 -146.824 14.3345 57.6433 26.1648 -104.73 172.264
24579 1 7.4277 -65.4613 -19.9065 -88.7108 -118.441 228.645 70.777 -115.74 46.7158 -333.857 415.688
17205 2 6.47099 -64.6592 -18.9558 42.998 81.7877 -135.276 -53.7161 44.7322 2.16854 -100.379 234.254
9911 2 7.91554 -63.5491 -15.5852 47.8771 16.1333 -106.656 -56.7639 26.1367 65.4999 -91.0109 211.114
12587 2 10.1612 -68.1096 -14.9984 -51.0352 32.9193 -83.6521 0.183294 72.9002 -64.0661 -96.4975 197.756
12169 1 11.4233 -64.9594 -15.7918 41.3379 -148.298 374.456 -76.9575 -108.832 -90.9882 -339.216 536.878
17480 2 13.5763 -69.1717 34.6474 -61.1674 102.818 -65.2013 30.0744 57.6967 -24.563 -91.694 205.132
19905 2 13.4041 -68.9058 -18.4904 12.1817 84.9612 -94.8959 -26.7284 49.7918 -1.2041 -95.1489 184.772
19958 1 14.5816 -68.6027 -17.4286 -76.8497 -97.2882 176.726 -4.59083 -119.899 14.0303 -347.568 337.168
29946 2 15.8546 -68.3146 -18.3503 67.9616 41.2714 -131.52 32.0747 50.5198 -35.7142 -91.6988 223.049
17393 2 11.4411 -66.0309 -19.2266 31.8783 8.40884 -71.2877 31.2699 -39.1821 -18.9903 -98.9162 131.886
29586 2 14.1036 -67.509 -16.3075 79.5064 -0.998773 -112.073 -28.8338 65.8809 -16.2595 -93.1043 209.926
19760 2 16.3849 -66.9037 -20.3994 65.0444 29.7719 -114.148 28.4789 56.4213 -67.4592 -89.2707 229.498
14869 1 12.3737 -65.9484 -20.5625 -43.1847 -75.231 172.391 -68.8746 91.3595 52.8377 -343.363 319.459
22385 2 13.9586 -65.8634 -20.2534 35.7185 45.2404 -110.277 52.2581 5.15175 -40.4001 -94.0531 189.643
22370 1 15.5137 -65.676 -20.779 -79.1012 -85.9612 224.836 -129.566 -94.9112 91.9481 -351.508 444.139
15355 2 16.35 -64.4442 -20.1285 45.571 70.0995 -133.554 68.5729 68.7218 -31.0799 -91.4198 261.254
14795 2 16.8939 -66.7904 -15.6035 47.3202 -15.1281 -115.56 62.4318 78.0943 -52.1444 -88.975 241.67
12619 2 12.3422 -63.9236 -16.5112 -1.17547 106.807 -155.495 79.0754 21.631 33.517 -93.5275 275.084
20053 1 17.0683 -67.7008 -19.1746 -153.229 -84.9838 246.577 -25.9072 -77.0826 86.9112 -355.545 423.93
9822 2 12.2859 -66.0714 -15.0995 30.269 43.7876 -187.804 -18.952 82.7452 -7.19033 -93.564 269.183
14883 1 13.4245 -67.2123 -14.8921 -159.36 9.18291 280.253 84.5757 -201.467 81.7218 -353.119 557.525
14775 1 19.4553 -69.1588 -20.5679 16.7789 -124.958 174.798 28.9188 9.49356 54.843 -353.538 281.53
19767 1 22.0634 -69.1163 -18.608 122.563 -249.915 112.678 -90.2753 -49.3903 -26.4455 -345.707 411.121
29693 2 18.0765 -68.7372 -19.8358 72.8228 60.9265 -131.424 -25.3414 3.42854 -30.4342 -88.9111 210.165
22380 2 20.7618 -68.8168 -19.6005 -42.2702 89.8866 -70.6265 23.758 21.9254 -2.01525 -93.3502 158.634
19495 2 21.5719 -68.4989 -17.165 -53.8446 114.73 -60.1483 42.5442 31.991 17.8298 -94.9907 197.417
19682 1 20.9167 -67.5591 -16.0027 47.0029 -140.759 105.898 -73.7271 -41.862 -10.6086 -346.261 267.738
20095 2 19.354 -67.3116 -16.117 30.2729 40.1886 -54.5936 33.3184 39.0688 -12.9842 -91.7521 128.676
20048 2 17.8165 -66.7805 -18.1104 43.083 51.4729 -112.934 41.3836 53.2526 -32.8303 -89.9473 206.396
27326 1 18.1059 -66.4022 -16.5573 -69.6152 -63.8245 149.069 -117.423 -121.648 81.583 -355.663 390.277
22559 2 21.5197 -66.0355 -16.1771 -36.0302 36.6143 -75.3339 28.5211 27.6743 -36.6404 -94.6318 135.804
12408 2 18.5269 -64.8451 -16.3705 -5.6779 92.2564 -88.8243 51.8487 63.012 -57.4732 -88.51 233.524
24875 2 20.9082 -64.6238 -20.5708 2.18664 58.5926 -78.8696 -9.45002 12.1199 -7.33655 -91.1436 123.263
27378 2 20.0159 -63.9788 -18.2217 -7.27292 67.5483 -77.6727 -0.527676 58.7837 -32.9498 -93.462 171.599
22394 1 22.9301 -65.4787 -16.6847 69.3 -128.553 126.165 -43.3986 -45.4944 30.6725 -346.393 261.366
27246 2 23.0553 -66.0917 -20.7546 -17.1889 37.4192 -66.3756 32.3038 -7.21772 -31.4127 -89.5287 119.727
17503 2 23.0037 -65.6151 -18.2519 -34.5793 48.8086 -39.0258 21.7531 8.00917 -24.4192 -93.1503 103.658
20236 1 20.1343 -63.4991 -19.7718 -31.0955 -56.4459 145.93 26.8482 -53.4785 23.2995 -347.415 220.996
29941 1 19.411 -63.546 -16.8391 64.4977 -171.624 153.311 -20.7932 -152.742 54.7011 -351.58 406.05
22570 2 18.6422 -63.3048 -20.3268 25.304 15.0318 -83.8074 22.7008 50.9388 -14.0899 -93.4433 144.277
29746 2 20.4241 -63.0541 -15.7075 -64.2231 96.3509 -50.0183 -7.14812 59.9366 1.04144 -91.4842 186.114
19984 1 27.1853 -69.1668 -16.0287 -6.84844 -100.864 185.202 -200.122 -19.4074 24.4364 -362.124 432.256
19700 2 28.4914 -68.7673 -20.0813 -45.8814 7.296 -13.1996 30.6241 4.08662 72.5789 -87.0636 144.308
19650 2 23.2602 -68.1197 -19.0754 -32.8325 98.0306 -56.934 72.9438 1.52956 3.226 -90.8532 191.991
15008 2 27.6757 -68.4141 -17.3899 -5.21452 -0.972907 -61.8241 68.1801 3.43421 2.93802 -86.8929 132.173
17472 2 25.973 -68.3222 -15.4421 24.4185 55.6974 -106.36 66.7197 31.7922 -3.93577 -89.5371 196.482