ITEM: TIMESTEP
1840000
ITEM: NUMBER OF ATOMS
29952
ITEM: BOX BOUNDS pp pp pp
-2.5215326849417927e+01 3.5200621184295613e+01
-1.2015621674547886e+02 1.3014151108747888e+02
-2.0972667834995136e+01 3.4840520979710341e+01
ITEM: ATOMS id type x y z v_StrAtomXX v_StrAtomYY v_StrAtomZZ v_StrAtomXY v_StrAtomXZ v_StrAtomYZ c_PEAtom v_VMS
9982 2 -22.625 -93.724 -20.5844 -284.298 214.861 -287.741 24.8412 -59.0608 28.4549 -44.7545 515.398
2506 2 -20.057 -93.0774 -20.4983 -173.641 87.1577 -195.616 -39.4719 -53.7932 9.28582 -45.8984 296.385
27158 1 -23.7558 -92.936 -19.847 485.617 -287.691 501.075 -44.6734 -20.7478 -37.3522 -417.461 788.456
29564 2 -23.1689 -92.3625 -18.4721 -211.517 77.5874 -144.111 17.9018 41.4033 18.1066 -67.1742 275.182
29595 1 -19.75 -91.4845 -20.4261 168.264 103.594 170.979 55.3162 94.4113 -56.2867 -411.809 223.136
9397 1 -23.1099 -90.8193 -17.8485 240.195 93.1525 75.461 -48.8325 -78.204 21.9133 -372.17 226.888
24846 2 -21.2053 -90.8435 -20.7259 -93.0443 -42.1542 -80.5517 -16.4154 -62.0491 7.81353 -67.9592 121.045
1999 2 -21.9339 -90.3811 -16.8526 -76.115 -44.8844 -52.1941 16.4328 8.96372 -46.8516 -86.2981 91.8524
22195 2 -24.4234 -90.7534 -16.6936 -84.0519 -41.3929 -59.1125 2.73349 69.0594 -6.47462 -86.2574 125.832
4705 1 -21.55 -90.3595 -15.3735 80.5206 -14.9029 297.151 38.7119 4.59239 127.787 -348.318 360.907
24862 2 -22.999 -89.8925 -19.129 -95.1929 -15.525 -54.3469 26.187 26.8275 -55.2096 -79.6655 134.618
2338 2 -24.3956 -91.7205 -20.7385 -151.75 34.7995 -191.146 0.531231 12.9418 -20.6523 -67.7676 213.272
4724 2 -19.3982 -90.8927 -18.9834 -26.2742 -72.1227 -105.815 -26.683 -27.5988 17.9551 -68.3554 100.847
2392 1 -22.288 -89.642 -20.556 164.82 12.8696 131.4 5.82916 28.8533 96.7037 -385.037 223.118
27175 2 -20.0524 -89.9151 -14.7986 33.992 6.2823 -165.658 -13.2727 -15.5424 -68.6782 -90.7156 224.72
2197 1 35.0001 -90.7345 -15.4387 50.0763 38.638 205.551 7.27063 -121.301 27.3403 -355.366 269.49
115 2 -13.5944 -92.8076 -15.2305 -87.4184 172.841 -268.889 -95.8423 -73.7777 11.6552 -72.8727 438.395
14593 1 -13.7867 -91.98 -16.6545 180.41 -217.408 441.624 233.131 96.9067 -15.4208 -378.318 722.733
12108 2 -14.9977 -91.639 -17.6992 -70.1588 64.3261 -224.676 -97.4301 -37.9556 9.82405 -74.5746 309.566
4793 2 -18.4532 -90.9267 -16.4212 44.9705 -43.1789 -160.193 -24.9929 -75.5054 -58.5603 -76.8975 247.067
7105 1 -15.4409 -90.4329 -18.7348 59.31 33.4922 246.223 189.529 47.0086 1.88582 -379.974 393.487
7595 2 -15.4962 -90.2421 -20.3057 -76.8003 -26.5712 -65.8927 -74.1938 30.1029 -1.11336 -72.6652 146.05
4623 1 -18.459 -90.0813 -17.8912 -74.3147 141.841 228.773 82.8522 70.1504 69.9103 -382.411 350.842
4783 2 -16.947 -89.9867 -18.3425 35.9201 -59.8892 -124.877 -66.8873 -25.4821 -15.4221 -76.3864 188.978
14605 1 -18.576 -90.5495 -14.8994 -140.379 73.3855 338.592 -14.9793 96.7911 148.756 -365.576 517.576
9297 2 -13.2177 -90.6148 -15.9701 -45.973 60.3921 -168.422 -138.297 -47.0152 11.1112 -88.3223 322.042
29685 2 -12.9125 -91.3376 -20.1116 -168.133 56.5921 -161.106 -94.9263 39.4657 -20.6755 -76.4166 286.286
2238 2 -8.08482 -94.5633 -16.8136 -268.205 317.014 -364.381 -40.5915 -8.94246 30.829 -87.6082 645.019
14403 1 -8.01534 -94.591 -15.1835 457.32 -645.371 846.429 75.9798 124.253 10.9292 -348.427 1363.96
6935 2 -12.7658 -92.6756 -17.7241 -124.808 153.343 -248.114 -111.428 -9.32702 5.95972 -74.483 405.569
4491 1 -7.65763 -93.1246 -17.3393 423.636 -403.589 545.499 185.818 53.3624 94.8159 -344.445 969.05
2181 2 -11.561 -92.9646 -20.3264 -228.053 191.493 -260.015 -97.9879 82.5414 25.4611 -65.1692 491.567
9403 2 -7.55506 -92.8448 -15.5844 -196.385 197.476 -345.165 -114.444 -54.6494 -24.5613 -105.594 534.717
9692 2 -8.67914 -92.1285 -18.0509 -112.834 158.867 -249.195 -119.983 12.8182 -90.1181 -89.3575 444.42
4791 1 -12.0515 -92.1506 -19.0343 277.328 -208.539 439.336 212.969 -75.189 28.4483 -381.098 704.616
14601 2 -10.9879 -91.0853 -18.3685 -31.0654 70.5305 -191.614 -112.997 29.3615 -56.5224 -85.0668 320.756
17077 1 -9.47888 -90.694 -18.11 81.9188 -244.775 357.797 205.523 -16.9105 197.762 -357.874 719.633
16980 2 -9.13447 -90.0282 -16.6779 -58.5942 185.385 -195.285 -129.063 -47.889 -30.2099 -93.4839 413.702
22001 2 -4.30733 -94.6258 -16.3106 -260.25 278.563 -350.72 -130.326 -104.158 11.4871 -82.1376 656.618
9425 2 -1.85772 -94.328 -17.502 -56.4785 217.398 -247.857 -97.3802 -240.104 -32.337 -53.0984 607.111
9722 1 -3.00441 -93.6147 -16.8362 212.006 -324.282 504.955 135.589 370.811 104.254 -392.764 1015.28
9226 2 -3.79732 -92.4659 -17.6135 -166.734 148.809 -177.906 -3.78047 -229.28 -121.718 -78.3838 552.643
7030 2 -2.63805 -92.9198 -15.3754 -54.261 131.295 -328.498 -39.3771 -91.3346 -36.2012 -76.2067 440.605
4962 2 -6.24738 -92.6781 -17.8798 -244.141 173.488 -196.008 -56.9137 -140.499 -96.0206 -91.8125 503.216
7010 1 -4.93357 -92.0007 -18.6001 440.277 -366.943 321.398 7.3814 482.666 301.062 -371.444 1241.27
7577 2 -5.09536 -91.9649 -20.2461 -229.624 203.96 -197.62 -11.3041 -264.352 -97.9751 -70.7668 643.405
14603 2 -5.94672 -90.6667 -15.5624 -185.686 292.877 -237.652 -29.6568 -62.2123 -44.0393 -99.2603 525.985
19013 2 -4.83174 -90.3218 -18.9044 -158.954 224.637 -160.514 44.9841 -245.529 -179.595 -82.3984 656.833
10070 1 -5.22212 -90.3467 -20.5407 298.601 -375.074 450.807 -20.6726 492.613 320.949 -380.218 1271.95
7303 2 -6.75603 -89.8348 -20.6713 -76.8546 140.308 -229.874 -6.93012 -156.278 -180.328 -77.1556 524.187
19805 2 -6.55606 -95.1032 -14.7354 -305.915 378.218 -444.2 -75.5312 -35.785 -25.3105 -91.1161 777.589
14659 2 3.53687 -94.0298 -20.3747 -393.369 263.5 -185.109 14.8287 140.618 -36.8004 -79.524 634.107
14788 1 4.44934 -93.0344 -19.4274 621.108 -380.709 377.705 -37.1621 -347.443 96.5483 -368.806 1101.5
24956 2 3.48719 -91.7587 -19.3706 -245.099 173.6 -183.094 -53.845 108.786 -23.5439 -82.8799 446.157
14763 1 2.89548 -90.8402 -20.5412 440.306 -440.584 350.025 200.955 -122.707 -2.59689 -363.011 933.237
16880 2 1.57612 -89.9392 -20.2901 -138.965 207.004 -194.089 -155.679 -31.2386 30.6309 -82.9767 469.312
12190 2 5.26818 -93.093 -18.0226 -283.066 191.976 -207.778 53.0175 172.309 -37.7592 -80.3782 545.297
24691 2 7.64671 -92.2845 -18.2973 -161.998 199.121 -193.501 121.73 128.47 -4.24065 -79.7114 486.619
17246 1 6.62855 -92.6378 -17.3233 463.343 -418.267 451.339 -219.466 -341.235 -15.3824 -371.799 1123.09
12103 2 5.49639 -92.5154 -20.6206 -240.584 160.24 -159.354 41.389 152.76 -42.4164 -82.3706 463.943
9595 2 6.8993 -92.2118 -15.8223 -229.734 204.14 -226.011 135.097 133.715 33.0163 -81.4325 546.176
15225 2 9.5074 -91.1758 -20.8053 -61.3194 116.505 -189.148 55.7314 118.148 -13.0981 -75.3559 349.86
15052 1 7.76285 -91.0505 -15.0228 393.623 -301.805 325.575 -242.882 -204.868 -122.477 -360.99 888.154
22569 2 6.93975 -90.3178 -20.5087 -88.979 110.509 -98.539 111.966 153.737 -60.0113 -80.4198 401.388
14500 1 8.49735 -90.1546 -20.1267 114.365 -205.122 239.865 -186.853 -270.27 59.0826 -374.394 701.619
17105 2 7.90319 -89.9393 -16.1361 -177.084 129.052 -145.016 90.2252 112.792 18.9468 -89.3984 385.48
14878 2 8.69268 -89.6701 -18.6341 -110.862 120.401 -120.817 80.6648 89.803 -21.1526 -85.3268 317.711
24673 1 10.9758 -91.6551 -20.4008 200.216 -261.604 488.912 -96.1493 -144.27 -26.8108 -381.461 722.69
17213 2 10.9968 -91.8637 -18.8335 -91.7916 140.728 -240.622 49.1714 18.1268 11.3989 -79.3513 345.617
14433 2 11.2644 -91.6832 -16.0757 -77.3033 131.904 -167.026 36.6453 13.409 19.8547 -82.3736 276.296
27352 1 16.5193 -94.097 -18.8087 519.721 -640.843 803.626 -56.1556 -115.426 -40.4913 -374.313 1345.86
29483 2 14.9659 -93.9274 -18.4999 -147.222 321.279 -383.302 19.2844 53.0289 20.3774 -74.0865 629.785
12596 2 16.4949 -92.3911 -18.9277 -158.366 208.024 -312.857 -5.74866 45.0721 -14.6194 -89.6607 470.689
17179 2 13.2397 -92.4036 -17.4766 -54.2265 165.96 -231.192 2.5785 8.14274 15.805 -78.2711 346.024
21987 1 14.7054 -92.2502 -18.2513 128.619 -332.419 544.029 69.8283 -84.2807 -33.5114 -366.21 784.823
19757 2 14.1143 -91.6436 -19.6819 -59.1668 129.026 -265.739 -14.9092 70.5821 -29.5261 -84.1019 367.684
14786 1 11.917 -91.557 -17.5589 119.441 -217.051 347.245 -43.7055 -6.31647 -35.9773 -370.071 501.507
24852 2 15.2507 -90.9976 -17.2988 -74.307 148.755 -170.587 -20.1268 21.9242 42.193 -89.0844 297.491
27090 2 12.3497 -89.9025 -17.7841 -34.254 103.809 -140.598 18.8156 14.0234 7.22933 -87.6773 216.475
14524 1 15.5757 -89.9306 -16.2018 162.684 -319.434 259.524 -27.6519 0.69759 -69.164 -355.536 552.404
16902 2 12.075 -90.381 -20.6925 -87.408 98.9755 -192.471 38.6429 46.4696 -51.7484 -82.1635 290.432
22180 1 13.3569 -91.3571 34.7508 214.443 -250.05 438.782 -61.6517 -126.598 86.2422 -376.606 672.371
24561 2 17.3452 -94.6013 -17.4602 -336.647 348.69 -376.122 20.1713 24.1853 -2.93726 -77.572 708.026
12203 2 17.6398 -94.3203 -19.9496 -331.301 346.005 -384.872 40.6965 42.6997 40.5876 -75.5066 716.434
14324 2 19.6798 -94.396 -18.2854 -263.921 344.369 -454.43 -15.4933 30.6474 3.06736 -72.0908 725.094
27166 2 19.3865 -93.9604 -15.4894 -301.325 319.68 -310.131 -2.91377 40.0903 -2.1312 -68.8541 629.328
24554 1 18.7678 -94.0632 -16.9528 622.811 -631.903 704.868 -6.40796 -69.9432 -21.7075 -378.387 1303.92
14979 1 19.2622 -93.8534 -19.7753 519.759 -635.447 797.825 -48.0136 37.9344 4.46493 -385.464 1320.73
17390 1 18.8696 -92.4511 -15.199 504.86 -434.346 444.342 -123.695 -1.63831 -129.643 -375.525 961.906
17561 2 18.3191 -92.4589 -16.6807 -250.404 227.731 -242.044 60.5457 19.4634 55.1683 -87.6049 495.934
22053 2 18.9589 -92.3094 -19.4529 -206.894 240.863 -326.975 109.768 -12.3149 -45.8691 -86.0974 558.2
17553 2 19.9844 -91.306 -15.2691 -157.933 172.731 -235.709 154.764 -13.5847 59.3561 -78.8279 473.376
27064 1 17.6267 -91.3636 -19.5097 277.744 -400.613 522.821 -130.98 -32.0965 99.4523 -353.514 877.902
29923 2 17.9963 -90.0025 -18.823 -72.2583 202.285 -231.769 94.8488 15.8415 -1.21422 -90.3092 415.159
14692 1 20.5212 -89.9132 -15.7869 93.7682 -229.369 408.298 -380.931 58.7393 -61.456 -369.053 872.919
17544 2 17.4077 -90.9911 34.8074 -120.547 130.37 -274.401 41.0439 40.8559 -91.2066 -84.4327 400.315
17093 2 29.1082 -90.7587 -18.4761 -73.7232 62.3349 -181.131 -20.8077 128.826 -63.1058 -76.356 328.172
29562 2 29.0384 -91.9335 -15.8438 -166.97 164.038 -231.467 12.4224 134.569 -26.8029 -69.7123 438.201
29760 2 -25.3347 -93.4488 -19.8313 -265.153 251.369 -318.125 44.4636 42.3402 12.3745 -54.2308 555.636
7309 1 29.3461 -90.7326 -16.8964 169.844 -115.567 313.451 48.2105 -246.323 121.395 -378.858 613.414
29846 1 29.4942 -89.8156 -19.7062 0.846931 0.86612 282.156 95.0619 -229.953 122.036 -370.547 556.376
9634 2 33.4181 -91.2665 -19.8486 -93.5623 32.7269 -198.935 -23.8315 39.1223 -26.0876 -72.276 220.674
29615 2 30.9261 -90.3748 -16.7183 -42.0637 -17.4137 -121.571 -28.5163 108.23 -54.6594 -81.6178 235.441
22061 2 33.5113 -90.2246 -15.8147 18.4733 -38.8047 -79.5694 -24.14 98.1477 -33.3362 -86.1951 203.122
4949 2 31.0606 -89.9743 -19.8074 14.2319 -15.8785 -154.23 -46.6338 73.0927 -58.6198 -79.0093 238.902
29487 1 32.6451 -89.8687 -19.6398 12.5096 4.62913 255.125 89.0107 -80.1591 145.935 -376.834 409.601
29557 1 34.4301 -92.1822 -20.7003 359.058 -207.754 518.432 0.588376 -88.3127 23.5632 -406.151 679.761
2417 2 -21.5007 -88.2806 -20.2669 -68.2577 17.9931 -67.0078 2.15282 8.05952 -51.151 -77.2956 124.06
29762 1 -19.6363 -87.0877 -17.3868 27.4373 -58.5825 182.849 90.1514 81.8403 192.007 -368.318 447.209
29766 2 -20.9391 -86.7466 -18.3736 -74.1036 27.9037 -65.132 -16.4396 -19.4729 -70.1213 -83.2177 162.081
29581 1 -21.6292 -86.7889 -19.8506 118.64 -87.9179 141.411 -2.4967 -39.319 110.993 -374.399 299.17
22398 2 -20.085 -86.6742 -15.9141 -18.2593 54.1202 -66.3163 -53.7619 -60.4015 -59.3835 -85.22 203.032
9682 2 -23.1633 -86.444 -19.8997 -35.0036 55.5944 -76.4154 -9.71216 54.9635 -44.8098 -80.732 170.424
24865 1 -24.6524 -86.2233 -20.4775 64.8103 -85.8729 167.646 17.1655 -125.658 84.1532 -371.098 343.912
2300 2 -22.9607 -84.267 -17.2698 -107.619 84.1347 -38.9249 -28.2318 11.1466 -82.9124 -89.4294 227.384
29860 1 -20.6626 -84.0827 -20.4925 152.999 -132.685 94.2529 55.1351 57.6431 144.626 -370.767 387.455
29836 1 -23.1047 -84.0986 -15.705 289.207 -247.743 99.6527 24.3491 -58.8359 235.465 -349.977 633.213
27656 2 -21.711 -84.5474 -14.9968 -147.171 109.773 -15.504 -24.4293 16.4349 -91.0778 -90.3212 277.51
4782 2 -21.6532 -83.5301 -19.4101 -68.8924 72.8591 -55.7995 -23.8703 -32.0536 -59.4643 -85.8688 183.871
29879 2 -20.9916 -85.6318 -20.7214 -66.5122 36.8302 -61.6582 -10.7546 -7.72518 -56.1965 -79.3073 142.133
22477 1 -20.8973 -85.9411 -14.7051 147.246 -137.27 51.1424 59.978 38.8685 79.2012 -356.709 311.424
7277 2 -19.1754 -88.6434 -17.5328 24.9924 -15.6124 -109.64 -30.0456 -30.9975 -83.9576 -81.9577 202.596
4727 2 -19.199 -84.2741 -19.8367 -50.3596 64.9428 -99.4499 -49.9206 -22.9866 -80.0264 -81.0785 222.798
4603 2 -14.4454 -89.262 -18.1941 -74.6393 16.0893 -109.722 -95.286 -35.6781 -16.2776 -85.7803 210.944
14608 1 -13.3274 -89.1565 -15.2294 55.8981 -112.455 276.775 201.1 98.4469 -33.2224 -351.384 517.711
7678 2 -14.8831 -88.9026 -14.8038 -24.0035 -20.6099 -113.698 -48.7821 -70.7866 -8.97005 -90.6688 175.424
27147 1 -13.4576 -88.028 -17.9221 176.809 -135.217 165.92 144.797 93.6794 87.7803 -360.542 454.338
5003 2 -16.4159 -87.1767 -15.9378 29.7138 -7.50572 -114.137 -40.8898 -22.4391 -56.6059 -84.9437 181.283
89 2 -14.5737 -86.8134 -17.7912 -79.2394 49.9275 -102.014 -60.1651 -20.7385 -74.3503 -85.6075 221.084
2286 2 -18.1837 -86.6224 -20.6017 -33.8376 -15.4287 -46.1368 -62.8592 -23.6009 -55.2411 -75.8688 152.958
9782 1 -15.4256 -86.1237 -16.669 83.9689 -74.5182 202.858 91.5566 -2.33691 162.092 -366.647 402.593
7113 2 -18.4801 -86.1248 -18.0848 14.9 12.4793 -123.861 -52.4706 -16.0222 -105.555 -81.0101 247.749
9511 2 -14.3048 -85.865 -15.4977 -76.6837 68.4931 -79.9857 5.96159 -7.75394 -21.0655 -85.973 152.266
27469 1 -18.1795 -85.4348 -19.5363 10.5226 -21.9135 219.354 107.872 13.28 166.783 -376.294 412.704
27245 2 -16.7883 -84.6983 -19.4855 7.98135 31.0905 -132.097 -47.2643 9.16738 -83.0565 -78.161 225.925
27437 2 -15.8203 -84.6686 -17.2051 -27.4135 77.7896 -119.472 -48.6252 16.0664 -88.4244 -79.0451 246.072
29673 2 -14.2097 -84.2033 -19.2747 -52.1987 75.901 -113.135 -24.6569 -36.3015 -74.2399 -79.3806 224.144
4717 1 -15.6652 -83.9708 -18.6301 30.419 -172.834 298.97 82.5829 -10.9476 155.219 -377.417 510.993
4514 1 -16.3483 -88.2615 -14.7052 -68.014 47.2942 175.432 13.9894 103.981 24.3597 -360.023 281.592
9608 2 -8.8695 -89.7324 -19.2592 -62.4203 127.85 -173.082 -33.4483 -32.9051 -167.573 -83.5494 400.439
7203 1 -12.9981 -84.367 -20.2957 125.848 -120.487 152.633 13.9429 113.343 119.412 -376.957 387.165
29840 2 -12.9743 -88.2317 -16.467 -53.2878 63.3395 -117.195 -84.3258 -36.808 -11.5295 -90.2933 225.688
6903 1 -9.04078 -89.3178 -15.2381 118.009 -423.608 401.066 261.513 225.28 -56.0217 -346.613 945.312
4600 1 -8.15816 -89.0775 -20.5628 32.1932 -213.261 431.526 7.58325 140.471 372.616 -377.355 890.858
12377 2 -9.86591 -87.9191 -15.4432 -53.2465 182.796 -163.751 -84.8214 -99.4985 16.9458 -90.2796 382.304
7304 2 -12.3571 -87.8407 -19.0813 -59.9119 77.2139 -88.6451 -58.1485 -60.3187 -78.7739 -83.0647 251.483
7270 2 -8.07848 -87.4844 -20.4191 -50.781 89.7111 -167.498 8.88626 -83.0753 -162.173 -82.648 386.781
7190 1 -12.5338 -87.4954 -20.5914 139.525 -135.79 197.367 58.7246 82.8037 200.387 -375.533 496.436
12181 1 -10.1836 -86.3669 -15.4646 151.198 -335.129 212.614 100.131 206.623 -12.9629 -358.399 654.84
14297 2 -12.5585 -85.8545 -20.6786 -86.4039 55.9635 -100.985 -26.4731 -80.3441 -104.737 -78.9823 277.37
17273 2 -11.687 -86.1769 -14.9519 -57.2448 132.633 -100.543 -3.07 -41.885 26.9508 -89.2855 231.56
7658 1 -8.33243 -85.9892 -20.708 -11.4867 -130.494 232.689 21.1273 158.755 279.32 -367.572 643.312
4808 2 -9.65319 -85.7899 -16.8581 -67.309 134.517 -76.0157 -46.8171 -127.048 -43.023 -84.5532 321.121
2466 2 -8.8658 -85.2322 -19.3418 -41.8084 86.905 -60.908 -46.6594 -105.973 -87.2821 -82.7749 287.17
7478 1 -8.52581 -85.0095 -17.7709 156.529 -209.474 105.945 147.361 298.124 124.837 -366.909 704.653
6996 2 -7.4918 -89.0587 -14.8115 -103.201 245.964 -204.222 -84.0394 -110.008 11.781 -93.7308 474.662
14508 2 -7.07383 -85.8196 -17.6415 -61.9474 89.9403 -73.5046 -52.4521 -159.646 -75.9789 -86.0565 356.359
14595 1 -5.92997 -89.055 -15.3345 284.951 -571.698 407.965 -27.037 183.351 121.135 -351.029 1000.71
12381 2 -5.98589 -88.0839 -16.6444 -114.932 209.767 -138.212 36.8411 -147.923 -108.144 -88.7809 467.26
19399 2 -1.29815 -88.1639 -16.9444 -34.0442 54.6892 -151.681 30.2013 -153.668 -72.0535 -77.0288 348.286
12112 1 -1.20441 -87.181 -15.5765 -34.2685 8.06763 304.196 -91.3768 253.66 128.726 -386.707 608.122
12384 2 -5.12839 -87.2047 -19.0034 -69.5989 69.908 -83.5809 22.1716 -172.956 -112.865 -89.7017 388.639
14899 2 -2.50937 -86.8799 -18.9114 -23.3204 5.41193 -91.4761 -2.83906 -118.475 -30.983 -90.9696 229.002
11895 1 -5.75036 -86.7677 -17.5504 132.019 -171.135 162.259 -24.3188 326.153 191.135 -358.999 729.715
14689 1 -3.82374 -86.6578 -19.7533 100.743 -70.618 139.381 38.8096 274.914 170.648 -348.464 596.735
9792 2 -4.54656 -85.8546 -16.9908 -60.3894 39.4698 -79.2066 26.2006 -147.626 -36.628 -86.6445 289.257
12008 2 -1.9925 -85.8267 -16.0338 -24.9628 18.0341 -132.718 35.4919 -150.202 15.5416 -80.8029 300.464
2135 2 -4.4408 -85.2228 -20.1549 -43.3162 43.9881 -54.1651 -51.2373 -125.95 -104.101 -94.0823 310.908
17293 1 -3.40561 -85.0448 -16.183 140.919 -116.674 171.635 -73.8887 330.758 -69.5382 -369.141 659.012
9600 2 -2.87613 -83.7588 -17.0276 -73.1428 78.3171 -60.993 30.7879 -118.247 34.6826 -82.6665 263.907
12208 1 -1.14943 -87.6076 -18.4648 19.4878 -29.2519 271.666 21.1093 253.314 -1.59262 -362.433 521.641
14597 2 -0.647861 -84.0717 -18.2023 -61.8551 104.244 -111.427 -13.2845 -38.875 19.8653 -85.9635 211.015
12172 1 0.348129 -89.0167 -20.7879 179.964 -280.916 308.003 254.094 175.582 -81.9499 -361.984 770.805
17158 2 -0.703401 -88.5727 -19.6767 -33.9636 79.1433 -178.032 -68.3575 -123.828 14.6322 -84.8109 332.422
14316 2 0.357043 -87.1496 -15.1857 24.8529 -31.5917 -137.404 35.025 -12.2317 -33.986 -68.4954 167.18
12272 2 2.82076 -86.7562 -19.9575 -54.1955 71.7524 -107.22 4.55528 11.3052 39.2824 -86.283 174.436
19907 2 2.49345 -86.796 -16.9613 -4.25321 -15.6011 -142.971 -8.75834 49.9879 36.4736 -77.4594 171.799
14502 2 0.0396577 -86.5316 -18.3034 -17.0784 -24.8664 -149.393 -26.6945 -61.7317 33.4821 -88.1147 182.95
9577 1 1.7027 -86.2661 -15.4896 -1.53434 73.1066 220.973 -31.6096 -128.736 -83.1823 -390.297 334.585
7276 1 2.99611 -86.146 -18.4742 -20.302 -9.34323 281.836 -67.913 -79.1205 -102.912 -369.318 390.494
19605 2 4.44674 -85.7054 -18.2362 20.06 43.6575 -157.029 79.3747 92.9978 33.0517 -81.4203 290.207
12484 1 0.509022 -85.0666 -17.8827 10.1498 -48.3505 290.738 36.3938 39.3908 -81.0574 -365.049 356.239
12009 2 0.968461 -85.0333 -16.3153 11.7434 -3.82285 -150.824 1.83602 24.4787 100.572 -77.5226 237.259
19781 2 2.00245 -84.8387 -18.5724 34.5548 34.711 -128.187 19.7893 7.91545 29.7389 -82.9682 174.718
17365 1 8.597 -88.9074 -17.2153 320.148 -306.351 230.07 -96.3964 -157.948 59.8077 -357.139 676.485
15104 2 9.84507 -88.5204 -16.3302 -140.655 137.766 -95.4188 44.0043 52.7712 -25.6912 -91.1924 288.294
19670 1 10.0349 -87.5159 -20.4528 172.527 -275.477 157.63 -89.3058 -138.649 96.9003 -368.341 551.381
17074 2 8.07735 -87.4213 -17.6461 -140.695 224.157 -149.008 -7.87689 86.5501 -35.5935 -85.6268 403.334
12294 2 9.15866 -86.4074 -19.7721 -100.039 161.135 -83.171 0.663224 59.156 -10.5797 -84.401 273.727
7179 1 8.39081 -85.9836 -18.3667 207.034 -418.962 291.666 32.1601 -125.022 19.9857 -361.111 709.37
22365 2 6.9678 -85.2713 -18.535 -68.7634 147.864 -145.257 16.7801 95.0967 8.31556 -86.7496 312.301
14770 2 9.25517 -84.976 -17.4409 -79.623 186.434 -144.209 -14.27 48.0583 -19.0528 -90.4933 317.443
17392 1 5.55993 -84.6592 -17.9775 36.9701 -148.097 267.329 -161.748 -178.257 -38.0281 -364.16 555.067
17195 2 5.62691 -84.2192 -16.4612 -32.5047 53.788 -109.445 57.3157 34.9606 9.40647 -84.9647 183.829
17290 2 10.2092 -83.6702 -20.5517 2.66445 64.4792 -50.4222 -13.5469 42.7442 22.7375 -90.0129 132.301
22285 1 9.42505 -83.6052 -16.6875 91.9266 -273.674 236.074 42.3987 -100.593 24.287 -347.315 494.633
15041 2 9.05306 -88.7498 -20.8144 -86.7802 113.755 -81.0702 65.8229 131.356 -57.5292 -80.6749 337.331
7496 2 10.6697 -83.5992 -15.6957 -28.83 136.093 -90.611 -28.3743 50.4302 -22.5373 -90.6953 229.727
17462 1 10.1161 -88.2829 -14.7923 269.665 -259.845 129.463 -114.518 -113.925 2.04219 -349.992 551.445
22686 2 11.0435 -88.036 -19.2831 -65.4615 166.825 -143.516 41.4706 32.5656 -49.2634 -86.1403 306.271
17088 2 14.4094 -89.1659 -15.3549 -49.8532 130.058 -123.528 31.0953 -6.15634 13.4765 -89.1479 233.688
22266 2 16.4883 -88.7078 -16.8312 -90.1914 211.885 -154.368 50.7711 2.12076 14.7674 -89.477 350.935
12212 2 13.6746 -88.5315 -19.6957 -81.2998 194.968 -149.513 28.3918 44.0247 -40.4588 -87.1301 336.103
12304 1 12.4522 -88.5399 -18.6067 86.681 -368.746 296.83 -86.3499 -46.4944 59.9555 -360.519 622.031
19393 1 14.87 -87.8279 -20.4853 230.29 -384.309 218.729 -29.1862 -146.717 78.0085 -362.114 675.389
24850 2 16.0275 -87.6393 -19.2825 -55.3253 196.314 -154.714 19.7376 79.5518 -13.0299 -87.1205 344.781
22084 1 16.8853 -87.5456 -17.84 81.8373 -467.936 372.314 -78.5202 -67.3988 -8.52167 -357.279 760.701
7206 2 12.9612 -87.1427 -17.864 -48.6159 191.402 -123.285 45.5565 27.3128 -37.8699 -87.8468 306.386
14875 2 16.5529 -86.2123 -16.9723 -46.76 166.399 -157.202 56.0912 37.8291 -18.2714 -91.7346 309.692
19885 1 13.0109 -85.5517 -17.8125 58.385 -268.236 219.42 -64.2497 -69.3038 58.9654 -353.393 471.63
19893 2 12.5935 -84.9135 -16.4142 -67.2211 113.704 -95.5032 6.36594 1.50377 -44.4426 -89.7886 211.434
17367 1 16.6056 -85.1386 -15.7929 83.6905 -202.374 229.408 -128.105 -59.7759 37.8241 -349.518 457.161
20254 2 11.9585 -84.8305 -18.8419 -17.0451 101.425 -123.888 3.91932 26.9977 -13.3546 -91.4899 202.178
22268 2 14.3998 -84.9357 -18.3428 -41.3286 81.9256 -131.213 31.05 85.667 -24.7854 -94.0509 247.187
19687 2 15.4382 -84.2846 -20.6321 -21.2262 24.5268 -55.5781 44.4422 61.6617 9.10225 -90.1347 149.751
22215 1 12.098 -83.965 -15.1653 36.2191 -253.328 168.358 1.60497 -49.4269 73.2773 -357.642 403.738
17285 2 15.4565 -83.9744 -15.5344 -18.2597 82.4109 -104.225 30.6134 38.6763 7.50111 -92.5241 183.43
6975 1 11.7633 -83.843 -20.073 21.3553 -148.975 188.429 14.9291 -84.4244 -5.21645 -350.722 327.897
14894 1 15.3871 -83.817 -19.0848 -57.9089 -92.8582 248.136 -52.2906 -174.542 17.2411 -346.189 453.95
17695 2 20.1015 -89.4961 -17.3181 -8.63913 135.623 -213.521 189.779 -17.1367 5.76753 -87.7933 448.747
29733 2 22.0918 -89.5247 -15.798 19.4471 26.3606 -237.131 161.351 -11.6982 36.2099 -80.4432 387.428
17101 1 19.2678 -89.02 -18.5613 -13.996 -332.577 451.864 -285.711 11.1005 -19.3354 -357.699 844.581
12320 2 20.1744 -89.0989 -19.9448 41.1789 110.353 -246.277 195.224 -17.2628 -10.6545 -86.6382 472.093
17081 2 18.407 -87.7147 -18.2639 6.53726 212.76 -220.006 54.6937 -5.74683 8.93091 -87.588 387.144
14602 2 22.3327 -86.9323 -16.0864 -20.3463 62.499 -101.335 40.2596 -24.4853 35.8986 -91.0157 175.098
27340 1 22.0966 -85.3424 -16.1258 33.1322 -130.273 148.509 37.8631 -2.83577 -110.81 -347.522 316.272
24801 2 20.699 -84.6691 -15.8438 -2.50097 38.304 -78.3816 11.3528 15.8701 33.3409 -93.6545 122.459
19692 2 22.6243 -84.6969 -17.6147 -30.7554 46.2599 -99.4301 -59.0174 -4.18225 52.7871 -97.4502 186.541
22376 2 17.8832 -84.2382 -16.2452 16.7215 1.97658 -115.961 61.6239 20.6595 -7.57533 -94.9345 169.442
27286 2 22.9854 -84.5756 -14.9754 -14.6493 16.3006 -20.3603 -14.2869 53.7462 76.8506 -91.3886 167.82
24910 2 18.9587 -84.3112 -18.9222 59.8733 10.0447 -121.661 36.5097 -13.5739 -32.9823 -94.5579 184.952
22100 2 21.2426 -83.9629 -19.8792 -14.2241 19.4269 -74.1938 -59.028 -33.0768 -26.9232 -97.3045 150.521
22371 1 19.6531 -83.8145 -20.2659 -44.9296 19.7196 111.851 -22.9424 6.4662 21.5138 -346.701 147.367
17582 1 22.5576 -83.7822 -18.9657 74.6923 -106.341 111.717 139.654 41.575 16.1016 -340.578 324.53
19876 1 18.2069 -83.563 -17.6759 -101.302 -16.7406 245.928 -95.5164 -16.379 43.1903 -341.77 363.494
19586 1 23.1181 -88.4307 -16.2496 -44.008 33.3473 269.963 -176.751 -2.00346 -10.1473 -359.341 417.514
2429 2 19.7705 -88.871 -14.7763 -58.9756 91.8165 -109.183 146.754 -29.6605 52.3198 -84.1674 329.076
9348 2 28.4298 -89.458 -16.4036 -14.3493 -18.8623 -105.479 -69.0835 128.638 -51.1312 -83.4893 282.343
22265 2 23.5609 -88.4483 -17.75 -9.96791 -26.1805 -163.749 59.0338 -23.2659 -8.0405 -94.367 183.551
24752 2 24.4761 -88.4892 -15.3529 37.672 -70.4834 -83.9452 7.49534 83.166 10.7467 -82.8649 186.01
22350 2 23.9596 -88.318 -20.5013 -42.8364 -20.5101 -135.634 40.1083 -51.6167 -10.9929 -99.1636 156.087
19875 1 27.9619 -88.0623 -15.7273 -86.1549 132.366 87.311 175.982 -243.943 26.7192 -363.596 559.921
24855 1 24.2477 -87.8724 -19.0448 38.754 86.895 262.519 -36.1809 37.4564 -4.5285 -333.75 223.19
27262 2 27.042 -87.1593 -16.6949 45.2907 -74.5129 -59.4212 -65.522 96.5471 7.02229 -89.4051 231.871
19968 2 25.3059 -86.7123 -18.5279 9.45883 -42.8153 -91.5141 -16.2051 21.9912 17.1902 -99.0118 103.803
24771 1 28.7323 -86.734 -19.6954 -123.522 93.4241 175.011 -60.1155 -103.702 157.753 -353.389 434.953
24577 1 26.5263 -86.0075 -17.6808 -69.8094 40.8439 149.592 63.2019 -100.172 -76.7087 -351.691 309.585
22354 2 27.801 -85.9526 -18.6735 38.4636 -33.0555 -70.0798 13.7449 32.6442 -27.6867 -89.1775 123.277
27059 2 26.0987 -84.7028 -16.9024 -9.03558 40.2777 -67.3041 -18.8532 44.895 82.16 -87.5246 189.906
25149 2 23.76 -84.091 -20.0591 -37.5977 52.4728 -35.6218 -51.3284 -54.1685 -38.0836 -95.6862 170.283
24582 2 29.2791 -88.2113 -19.3147 20.1774 -52.8094 -97.9337 -22.3925 93.9614 -76.8639 -89.1199 237.427
24970 2 27.8867 -87.0186 34.7242 40.3262 -33.5863 -111.28 37.8307 33.1438 -62.2932 -95.1199 190.977
22246 2 29.3897 -87.3115 -15.3889 40.0622 -62.5069 -41.6879 -57.5258 111.86 -10.0749 -85.0362 237.883
9613 1 32.3293 -89.4986 -16.6226 -29.9018 55.2688 132.153 64.0713 -224.453 103.071 -365.46 463.721
27152 2 32.901 -89.3441 -18.1525 5.22631 -25.5521 -72.5212 -33.9447 71.7049 -55.8915 -82.1558 181.252
29813 2 31.8851 -88.0576 -16.1219 1.72194 -8.09212 -72.1698 2.79302 116.056 -48.5868 -86.09 228.786
19777 1 31.0149 -87.0242 -15.2649 -54.3039 60.8442 125.591 -5.29442 -177.626 97.6833 -365.437 385.059
27368 2 30.0755 -85.8474 -19.9289 61.247 -10.9517 -103.347 73.9557 57.8896 -100.128 -86.2303 277.415
19704 2 31.4244 -85.5321 -15.6089 31.3283 36.0959 -115.099 48.4039 58.1425 -73.5685 -80.2291 235.731
2517 2 34.8791 -85.4705 -19.306 -60.8492 45.1488 -37.1119 15.7767 76.1102 -28.2654 -83.5354 172.641
2413 1 31.3965 -85.1002 -20.4247 -83.1908 8.42826 211.373 -125.232 -140.75 161.361 -364.594 502.76
27271 2 33.4913 -84.842 -17.1083 -45.467 46.0089 -69.1511 69.7541 89.5764 -72.6316 -84.35 256.106
2320 1 32.7355 -84.604 -15.6966 25.8208 -187.456 284.824 -99.9685 -136.657 184.25 -371.142 596.373
2105 2 32.4505 -84.4828 -19.4151 -51.283 4.96592 -60.6946 90.0857 104.109 -46.0663 -83.4421 258.864
2367 1 33.8785 -84.4029 -18.5995 106.035 -61.4794 61.6098 -131.213 -170.709 68.4747 -365.188 419.207
24773 2 33.0664 -89.0094 -20.8704 -20.2026 24.2573 -137.519 -19.6546 30.7041 -99.5987 -79.6571 233.886
29859 1 -22.4066 -82.9819 -18.0868 177.369 -155.496 98.7204 10.8367 35.8701 134.758 -354.233 386.648
19985 2 -23.7395 -82.6088 -15.8707 -138.348 97.4983 -69.5509 17.1199 38.9015 -71.6549 -93.4824 254.86
27284 2 -21.2232 -82.3203 -17.1715 -92.9709 88.3869 -70.9359 10.6215 -47.6338 -63.521 -89.7753 220.522
20195 2 -23.5876 -81.9407 -18.6058 -61.3536 53.8544 -27.3576 20.7399 31.6526 -70.0434 -91.7548 171.832
29920 1 -24.5428 -81.3069 -15.4113 142.668 -191.144 100.238 4.56556 -161.655 81.7179 -351.527 444.478
29643 1 -20.4751 -80.9381 -17.1523 79.8684 -77.418 103.972 -63.5804 73.1727 75.0639 -354.355 272.406
4883 2 -20.4413 -80.612 -18.673 -46.8747 3.13939 -38.7983 4.85626 -26.2931 -29.0202 -92.3365 82.6676
7391 2 -23.9175 -80.0095 -16.0862 -84.5939 81.9896 -24.8463 -8.38215 49.169 -30.5716 -94.2128 177.86
36 2 -21.4163 -79.931 -16.3483 -75.8557 33.7865 -1.81066 32.7331 -20.5759 -22.7781 -93.6747 124.204
2306 1 -20.4974 -79.8266 -20.092 54.5648 94.8964 -54.7284 43.674 16.9219 52.2189 -348.741 180.946
7516 1 -22.7129 -78.9604 -16.2056 171.417 -128.782 -20.4457 11.5352 -30.4505 16.7145 -343.379 270.837
4999 2 -21.1726 -78.4668 -19.6977 -31.2811 -44.3198 25.86 0.60932 19.7931 -7.2625 -94.5954 74.2617
7506 2 -22.525 -78.0051 -17.5076 -40.2573 21.0095 0.839582 -26.027 13.3939 9.36305 -95.9949 75.8822
24747 1 -24.1623 -77.6043 -20.5679 55.9727 73.769 -58.8082 95.1169 16.4599 -8.48837 -345.017 209.057
2374 2 -23.4803 -79.0247 -20.9156 -45.2895 -54.5835 29.4954 -10.7014 -2.93901 -22.4332 -95.809 90.8484
2022 2 -25.0061 -81.8939 -20.841 -56.1644 38.1571 -12.9943 57.8779 55.5389 -47.6588 -87.8471 181.123
25118 1 -25.0329 -81.6823 -19.2091 119.505 -117.561 37.9696 -59.816 -113.441 112.335 -355.281 361.548
29599 2 -22.6706 -78.1163 -14.8466 -86.8567 62.2548 9.46553 -17.6504 35.6508 -6.0755 -96.1436 148.35
2381 2 -19.1054 -79.756 -20.832 4.34328 -72.2473 20.0116 -6.64639 -24.2428 -25.6276 -89.9157 105.724
2232 2 -18.9928 -80.4803 -16.6118 8.4276 -0.196408 -47.3444 39.7955 3.95235 -7.89631 -85.3903 87.6862
7398 2 -15.7959 -82.3687 -18.7042 -3.84782 82.2058 -144.418 -41.4783 2.61038 -41.5718 -79.0258 222.774
192 2 -16.938 -81.1229 -20.6737 2.69677 -35.8645 -41.8613 -9.63221 -6.48932 -51.2827 -82.3304 100.243
9903 1 -16.1293 -80.9633 -19.2987 -80.0793 22.5687 157.662 68.612 4.27462 47.6977 -370.941 252.303
4796 2 -14.8025 -80.1023 -19.5735 41.6276 -48.4683 -43.9521 -13.1467 -0.98258 -34.2762 -83.1288 108.521
29554 2 -17.0402 -80.1522 -18.2358 21.2644 -33.9145 -72.8786 -20.1565 -0.90567 28.7086 -84.7309 102.014
2679 1 -17.8291 -79.4336 -17.0532 -70.1764 40.2352 121.95 -18.7125 -74.797 -72.7819 -360.604 248.226
14839 2 -14.044 -78.9939 -15.7136 -9.34025 -23.5806 -38.8955 -70.9615 -29.0028 -13.1791 -92.4192 137.137