ITEM: TIMESTEP
160000
ITEM: NUMBER OF ATOMS
29952
ITEM: BOX BOUNDS pp pp pp
-2.5215326849417927e+01 3.5200621184295613e+01
-6.5403588782019270e+01 7.5388883124019273e+01
-2.0972667834995136e+01 3.4840520979710341e+01
ITEM: ATOMS id type x y z v_StrAtomXX v_StrAtomYY v_StrAtomZZ v_StrAtomXY v_StrAtomXZ v_StrAtomYZ c_PEAtom v_VMS
27650 1 -21.4126 -61.6794 -18.8231 -9.00974 -20.2495 38.9652 -17.1282 17.1175 95.9426 -342.284 179.837
29868 2 -20.4218 -60.8212 -17.7695 -22.1635 -12.207 -33.5786 0.48855 6.49148 -53.7588 -96.495 95.6047
2193 2 -20.2684 -62.2204 -19.8461 -14.2269 28.9234 -11.9075 -14.6153 -17.1199 -13.3333 -93.6947 61.8116
14809 1 -23.3636 -62.8179 -16.7646 -65.0285 -14.6657 36.1631 -51.827 22.6998 56.5652 -340.244 163.959
7676 2 -24.0114 -61.3594 -16.7881 14.8025 0.0479444 -30.5158 27.2176 -40.278 -29.2277 -97.3055 106.089
25037 2 -24.2684 -64.1492 -16.9937 7.96353 18.8495 -19.7065 3.18316 -15.6016 29.1516 -97.5781 67.048
27051 1 -23.4928 -59.7489 -20.2945 42.6568 26.5669 -28.9341 -79.5169 -53.1233 107.49 -343.956 257.545
2498 1 -24.5471 -59.8762 -16.2502 -30.7034 -60.4927 94.5603 1.22842 134.805 13.9238 -345.441 274.614
19987 2 -22.4306 -60.733 -19.5924 -16.7806 -26.7446 -13.9773 25.374 1.91238 -66.4648 -96.8575 123.815
9636 2 -22.2621 -62.6386 -17.9492 21.5002 28.766 -21.8277 27.2942 -10.5917 -30.7686 -95.9565 87.5015
19989 2 -22.5569 -63.0882 -15.4144 27.3707 -30.9373 -0.0348616 3.75197 6.49426 -45.7206 -96.5491 94.8303
4900 1 -19.4456 -60.3286 -16.5574 -50.4855 -6.05843 81.1201 -67.3819 -26.9031 77.5507 -350.005 217.443
24788 2 -24.9084 -60.4227 -20.1288 -47.125 -7.90389 36.1233 73.2681 19.3161 -43.753 -93.5458 167.84
12654 2 -20.4889 -59.4093 -15.7359 2.54164 3.08472 -8.79715 19.6575 0.705329 -0.648879 -90.2838 36.0143
4913 2 -20.6574 -65.4115 -18.1664 10.5758 69.8201 -35.0185 39.7197 12.415 40.9102 -95.1934 136.038
4929 2 -18.8451 -61.6707 -15.9851 14.5375 -11.0488 -23.7347 15.9928 18.1261 -44.7253 -92.6898 94.3091
27239 2 -19.1514 -64.4551 -16.3942 13.9104 1.39422 -12.7607 3.62342 6.88884 3.46412 -94.4281 27.4215
3 1 -18.9131 -63.2148 -15.3222 -63.5838 98.7078 -34.4186 14.9443 -16.569 71.1818 -347.511 197.864
4815 1 -18.7813 -61.8551 -20.3545 -7.65991 -54.8187 11.263 41.4438 51.466 5.21385 -350.323 129.054
7495 2 -17.7518 -62.0382 -19.0899 20.9969 0.828557 -18.8217 13.5197 -5.36531 -34.6983 -91.9074 73.7281
10085 2 -16.1561 -63.4014 -17.0943 35.9439 -24.8873 -26.1911 35.6995 17.3761 -28.43 -92.2385 104.572
16 1 -16.7685 -63.2077 -18.579 -69.5955 32.5833 29.1765 -49.8101 0.865322 70.3987 -352.787 180.048
10099 2 -15.5108 -62.7413 -19.5978 64.8035 -13.2964 -3.92992 35.408 -20.1867 -31.8495 -89.3527 116.115
5102 1 -15.7874 -63.8196 -15.4854 -70.8489 28.8808 2.46099 -66.439 -68.8491 42.5672 -348.15 202.257
14903 2 -17.8599 -64.5453 -18.6651 -8.69729 23.0111 -4.18208 18.8523 12.936 4.34431 -92.2467 50.075
9702 2 -18.2109 -59.2811 -16.9502 61.0564 7.42447 -54.4588 88.616 28.5766 -25.2424 -90.3131 194.794
10155 1 -14.1235 -62.0934 -20.3174 -33.5164 14.8554 -1.51975 5.30798 22.0926 41.474 -350.627 92.3305
7651 2 -13.6389 -60.6004 -19.814 -40.7572 37.4518 10.533 -19.5324 -6.96765 9.88977 -93.9529 79.4958
2297 2 -18.8023 -60.2378 -20.7826 22.8345 -0.618762 -36.7524 15.2895 -20.3176 -13.6354 -92.6717 72.1154
4729 1 -19.0837 -65.3728 -17.7229 -35.279 -111.391 66.8321 -57.5395 -49.4637 -62.1594 -346.012 229.903
7714 2 -17.339 -63.5943 -14.9054 37.1213 -43.3973 29.6018 8.89189 33.0878 -25.7742 -92.7439 106.999
29768 2 -15.4266 75.3358 -15.4552 10.7583 -19.9155 0.78099 13.3484 36.7017 -7.64227 -94.9492 74.0621
9797 2 -14.4933 -60.2055 -14.8694 -35.1714 40.2687 -3.36723 21.4746 14.9579 -30.4518 -94.038 95.6035
29841 2 -12.9902 -63.0933 -19.8123 -12.0221 -4.66898 -12.4966 -28.2823 -25.9179 -37.8537 -94.2556 93.6556
25036 1 -11.6554 -63.5916 -19.0191 127.789 9.0097 -73.5838 56.43 55.3035 30.1792 -340.325 228.476
2609 2 -10.3618 -62.8826 -19.7081 -51.4962 -15.9106 21.6633 -20.8633 -16.8515 -14.1436 -96.9457 82.2988
7687 2 -11.7071 -62.9396 -17.5451 -76.4528 15.892 47.405 -16.203 -25.9431 8.81242 -95.8434 124.38
12782 1 -9.20843 -59.8434 -16.6929 -48.3333 13.3833 42.3834 -43.2937 3.17991 -83.4052 -354.725 181.555
7219 2 -9.94674 -61.2211 -16.2697 -24.0546 40.8749 -12.1627 31.129 -6.15737 35.1947 -91.764 101.597
12712 1 -11.1435 -62.4086 -16.1798 150.154 -90.6625 -60.063 -16.4414 48.3711 -35.4543 -345.155 251.319
10038 2 -7.83594 -60.2274 -17.6237 73.6585 -37.5408 -53.6168 27.3684 -11.4399 53.2112 -86.8018 159.829
12401 2 -10.714 -63.7257 -15.4463 -57.1657 8.17563 37.4413 3.93494 -15.5267 10.1603 -95.0288 90.0977
7522 2 -12.4504 -61.7466 -15.3577 -62.4535 42.9369 12.9656 11.8857 -16.7936 -2.37001 -95.8114 100.665
7305 2 -11.2047 -65.1432 -19.0664 -60.2811 -32.576 26.0795 21.8334 -30.2496 -21.0577 -98.4889 106.483
27470 1 -10.956 -65.2791 -15.0774 71.125 40.9289 -72.4407 -42.9248 52.512 -1.95978 -343.375 176.067
17951 2 -6.34666 -64.4119 -18.5315 63.3489 -42.6265 -68.5223 46.8887 2.79427 -1.04427 -85.3649 145.836
12561 2 -6.37338 -61.7605 -19.3089 61.5494 -27.3275 -61.9368 72.6459 35.2652 39.8664 -87.4736 191.06
15338 1 -6.31676 -60.5046 -18.2402 -154.197 96.7772 110.981 -93.3285 -17.8264 -74.1287 -359.784 332.15
15428 2 -4.99315 -61.0758 -17.3977 74.1628 -62.5668 -48.8431 26.2224 29.3723 25.6184 -88.3725 153.71
9891 1 -5.94167 -63.3176 -19.6059 -171.528 95.8871 168.807 -122.411 -54.3163 -65.0059 -361.761 403.497
12763 2 -4.34196 -63.3506 -19.7579 80.8078 -41.5663 -83.916 4.35121 31.1651 55.0211 -84.7155 184.402
2570 1 -3.46743 -60.9953 -16.7827 -21.9102 102.575 75.1606 47.6715 -37.1162 -12.1956 -351.869 155.667
7704 2 -3.16061 -62.3155 -15.7603 -24.5121 -35.5291 6.23688 -32.4837 -10.5555 -42.5231 -87.6259 101.637
7300 1 -2.8795 -63.3834 -20.4192 -34.337 43.169 79.6432 61.0581 -59.5443 -143.399 -366.048 306.064
10126 2 -2.1851 -60.7219 -17.6639 -11.4173 -45.2202 -92.1105 -45.8108 27.9674 27.8449 -94.0102 126.075
7762 2 -3.51551 -59.532 -16.0842 -15.2684 -42.0755 -15.786 -32.4982 -7.84129 22.9374 -92.7612 75.0749
19722 2 -1.89968 -63.8772 -19.2045 -38.4618 -9.88482 -51.9199 -35.2869 58.7879 65.5934 -85.3767 168.503
14720 2 -1.62113 -64.2178 -16.5833 -33.1527 -41.8412 -11.3459 -64.4773 26.9418 -22.9232 -85.5149 130.255
7489 1 -2.17094 -63.4979 -15.2049 -17.4553 90.2685 1.89413 115.175 32.7769 119.303 -361.443 309.214
17558 1 -0.871208 -59.971 -18.1538 -67.3795 87.5779 172.396 54.2824 -2.22156 -48.5025 -350.972 245.482
17376 2 -6.44131 -63.9877 34.8249 78.2385 -85.2753 -65.6198 29.4996 18.8409 -7.19712 -87.5136 166.554
22613 2 -2.93127 -61.8165 34.7392 -5.98854 -42.6217 7.42686 -32.5673 21.2412 37.1433 -85.1879 103.382
9904 1 -0.882468 -64.4062 -18.0073 83.2817 -8.05481 64.6685 113.245 -87.8689 -48.8199 -364.709 275.273
7593 2 -0.135751 -61.0196 -19.162 49.8588 -71.6017 -74.1796 -41.2125 -18.2985 38.088 -88.2405 159.764
15168 2 2.27662 -61.4316 -18.973 82.8578 -66.5219 -101.951 -13.8049 -27.3626 24.7124 -85.4955 183.063
17296 1 3.38452 -60.2683 -18.6495 -140.514 53.4515 173.185 15.3816 81.0212 -1.49505 -363.152 309.18
17354 1 0.921108 -62.1953 -19.3036 -133.124 149.113 117.152 37.5105 64.2668 -65.781 -363.663 318.201
12564 2 0.441386 -63.4967 -18.4048 25.9162 -35.0074 -50.0864 -44.5056 6.40341 4.14688 -85.4466 104.76
7592 2 4.21553 -60.9646 -17.3698 58.4007 -22.9309 -56.9227 -19.4573 -16.1598 -23.9332 -84.748 119.048
7205 2 3.9996 -62.9208 -15.5281 15.6713 -50.5804 -20.6117 4.72305 -36.1606 -37.7893 -86.0914 107.59
24885 2 4.75128 -64.4233 -20.2744 -9.91631 -9.79773 -45.5188 -32.7208 -11.7241 -6.71957 -83.9906 70.9334
12607 2 4.55761 -60.3592 -19.7982 38.5229 -18.2498 -67.3721 2.46776 -20.5487 -5.85337 -87.3993 99.0593
17257 1 4.87947 -62.2835 -16.7013 -76.8255 87.2638 55.4848 -8.58068 42.1535 90.205 -364.357 229.528
17374 2 1.18314 -62.7377 -20.8605 44.0758 -95.2526 9.23378 -2.04052 -25.328 53.6701 -82.6416 162.328
12683 2 4.96017 -63.4853 -17.836 2.52498 -23.8582 -29.813 4.51763 -21.3525 -23.3004 -85.2723 62.8202
4908 2 0.145583 -59.3701 -17.0371 52.1477 -50.2389 -84.1196 -9.48896 1.58234 46.833 -89.8882 148.18
22249 1 5.18987 -64.7906 -18.7008 52.979 -27.95 58.4429 22.8928 73.9681 -0.47701 -366.09 158.14
15019 2 8.54992 -62.0995 -17.5654 3.75786 -32.7545 -29.5598 20.2783 11.2167 -28.0178 -90.192 72.0609
24892 1 8.14728 -61.068 -18.7193 -52.2264 84.9555 66.5222 6.89464 -42.4997 -7.31436 -352.322 149.505
15079 2 6.39972 -62.0405 -16.3049 51.8496 -51.1522 -34.5987 17.3598 -11.0226 -48.4204 -86.4101 132.214
15109 1 7.94347 -62.4871 -16.1292 -65.6857 61.8402 77.8254 -23.6393 -24.9343 132.793 -357.06 273.861
14712 2 9.2611 -61.1092 -19.8796 4.16631 -61.9409 -4.14556 -32.6317 -17.0318 46.8566 -91.347 120.587
12395 2 6.76026 -61.6417 -19.3192 23.2162 -24.2807 -47.5757 9.98074 14.8573 3.64253 -88.5018 70.0423
12610 2 7.80205 -59.5523 -18.3424 13.4082 -8.74222 -64.3377 -29.5591 43.5289 3.41351 -92.4271 114.688
17617 1 10.2183 -60.6666 -15.4548 56.8736 23.8571 38.6633 -19.1349 -60.822 69.9856 -346.632 166.466
9911 2 7.96943 -64.0875 -15.662 4.89833 -6.4419 -38.0723 -0.384489 9.24118 -34.9799 -87.1652 73.588
14977 1 5.84843 -60.9805 -20.482 -33.2715 11.8489 107.276 1.35087 -24.016 0.086904 -358.767 131.087
12396 2 8.82536 -61.4884 -15.2102 -10.7773 -16.5094 -14.8431 14.5752 -8.51373 -53.7574 -90.5358 97.7262
12496 1 10.7394 -61.0469 -20.516 -17.0065 147.824 -10.1102 99.2463 51.2074 -128.671 -348.828 336.399
24874 2 10.3141 -59.4344 -16.5298 -22.1172 -22.5607 -49.2639 -15.356 33.5352 -6.74227 -95.6878 70.3045
17205 2 6.64589 -65.3585 -19.0717 -22.3577 26.8512 -36.9311 -28.1455 -17.7912 9.39613 -84.0655 83.3186
12777 2 11.4184 -61.6003 -15.8011 -60.2818 -13.8373 -16.3535 1.68415 11.8769 -19.608 -93.7382 60.2634
12619 2 12.1074 -64.0391 -16.4496 -65.0147 74.3363 -32.7561 -22.7817 -55.9589 2.01135 -86.2385 164.096
17322 2 11.8709 -60.8559 -19.449 -15.8058 -66.8463 4.32859 -34.7322 -40.4205 66.9754 -93.7622 161.294
15308 2 14.0623 -62.0455 -19.9099 21.7247 -39.304 -45.7816 -53.4846 -9.28176 53.1125 -91.1771 146.509
10118 1 13.3826 -61.0833 -18.825 -18.0196 79.8077 12.8366 64.5194 74.4549 -122.35 -353.044 285.537
17765 2 13.3414 -61.8152 -17.3666 6.86291 -37.7534 15.6169 -32.0073 -52.566 22.9613 -88.166 124.106
12687 1 12.6707 -62.5195 -16.0918 67.2955 -4.59345 18.1497 38.0149 61.5938 -5.64649 -358.018 140.935
17646 2 13.9884 -59.5813 -18.6751 40.4423 -15.1429 -43.0868 12.0566 -24.7274 64.2416 -89.2866 141.687
15355 2 16.3168 -64.8042 -20.0644 6.92379 25.9855 -59.9689 18.4137 90.1522 -12.3498 -90.857 178.802
15093 2 16.8225 -62.1367 -19.1367 41.9402 -15.8282 -68.2649 -19.5454 60.6526 25.6058 -89.2182 152.529
14908 1 16.9716 -63.3208 -20.2544 -50.8592 30.7016 62.3552 -12.1839 -163.973 7.29391 -353.487 302.494
27067 2 16.909 -60.0437 -16.9642 47.577 -2.96954 -22.8616 -32.6584 15.277 54.3438 -86.8509 129.289
12169 1 11.3077 75.3744 -16.0261 145.343 -124.927 64.4009 80.4041 88.3872 -10.7835 -360.653 317.65
12397 1 17.5244 -61.1617 -18.0147 -29.9027 -52.8779 102.797 75.4656 -82.6876 -75.0641 -357.729 275.112
15011 2 18.2592 -62.3494 -17.1693 -11.1608 27.9775 -49.6675 -44.7111 59.2278 19.319 -90.8055 148.87
22607 2 18.3029 -60.1237 -19.0327 -17.1013 40.1477 -18.6731 -9.29301 20.4044 -5.0966 -89.266 70.3983
22544 2 20.7788 -62.3633 -19.5588 -37.7993 3.49073 -6.83133 3.24457 13.6767 -33.5872 -94.6164 73.2274
20236 1 20.0441 -63.7804 -19.6331 18.4747 15.828 12.1596 -6.80729 -67.2609 64.8757 -344.789 162.382
27378 2 19.8699 -64.2427 -18.0476 -24.9027 13.3346 -25.9321 5.8961 58.766 -34.5862 -97.8875 124.723
29746 2 19.8721 -63.2741 -15.5679 -68.4501 45.5628 -0.176934 -17.1059 53.5739 5.7955 -95.8223 139.518
2396 2 22.2179 -60.0719 -18.8084 -86.0519 37.6462 12.972 -4.1148 30.2703 -30.7703 -91.673 136.007
15064 1 22.2588 -61.6794 -19.2274 154.831 -48.5499 -60.4856 0.575901 -21.3325 54.1206 -347.087 232.566
29941 1 19.0082 -63.8017 -16.7264 70.4998 -52.5561 67.9381 4.4934 -137.561 42.4462 -345.592 277.612
19810 2 22.1843 -62.0626 -15.303 -51.5133 48.1389 -12.0685 -10.9983 11.2739 -0.573667 -98.9059 91.1091
22570 2 18.5629 -63.4926 -20.2777 3.39062 -25.2513 -6.0771 6.70342 67.3605 -28.6096 -91.7328 129.775
24875 2 20.7888 -64.8648 -20.5411 -28.5848 5.96124 13.5472 15.4905 22.817 -23.92 -93.03 74.2377
12408 2 18.068 -65.1539 -16.3862 -8.35079 21.3904 -48.7487 36.5232 48.8249 -36.1209 -91.1733 137.061
4905 2 22.8953 -62.2752 -17.8606 -45.6863 23.6788 10.6657 8.09561 33.0444 -14.2983 -96.6628 90.3545
17590 2 23.0389 -62.1344 -20.5124 -61.1591 -41.5322 42.5285 -19.201 -17.6404 -31.2166 -91.7347 118.593
27366 2 23.1842 -64.2265 -16.2231 -19.5101 38.9316 -10.3989 9.89285 28.0871 -10.1629 -101.429 77.0459
24868 1 23.3019 -62.6456 -16.3214 -5.9014 -78.1984 33.6899 -25.6892 -63.8294 15.3197 -336.592 156.726
24 2 24.7954 -62.1654 -15.9138 28.1918 41.9478 -53.2442 22.6045 8.62611 -4.13439 -97.6205 98.7354
17419 2 28.1252 -62.1013 -17.6871 -19.6201 5.03187 -17.0344 -19.8612 -11.8627 24.4364 -96.2462 62.8303
24844 1 28.3458 -63.65 -18.3457 15.1752 92.6197 -41.0812 -44.0168 -12.652 -10.4513 -338.15 141.914
24951 1 28.3713 -60.7545 -16.7028 41.9792 -141.822 148.305 53.7867 25.0529 -36.0886 -344.349 281.247
24983 2 27.1009 -64.6399 -18.4814 26.2288 -43.0229 11.5672 32.773 -0.182253 -7.95785 -97.0924 86.068
2513 2 27.2339 -61.1257 -15.5631 17.0787 51.0727 -77.4449 -11.0129 -37.2037 10.8572 -96.3864 134.809
22484 2 28.9115 -63.1399 -19.7873 -20.7 -74.3781 40.1662 16.5082 -1.583 -36.7239 -95.4577 121.343
25166 1 25.9471 -61.8628 -14.8479 -40.9235 -118.877 125.429 -25.8668 63.9767 15.9071 -340.36 248.522
17352 2 26.5804 -65.1744 34.9277 0.441436 -70.2236 13.8177 7.73642 -1.24179 -57.5525 -92.4495 127.431
22461 2 35.0981 -65.156 -20.7984 -23.3878 22.2022 17.5806 -68.1771 -29.6541 -29.8323 -96.3523 145.401
17611 2 29.3664 -64.5853 -17.4596 1.38571 -21.4111 -9.51501 25.7909 8.75671 -11.4375 -100.446 54.8454
24776 2 29.9042 -61.1816 -16.1604 4.26149 55.8824 -62.7068 -15.8757 14.9824 40.29 -97.0049 130.022
27568 1 32.6796 -63.4507 -18.5791 -48.8129 139.39 -91.4256 -15.7345 74.5083 14.7866 -338.348 251.613
22576 1 31.0892 -62.2617 -16.1495 -49.9953 3.05048 76.0352 -14.6335 -15.0603 -63.9864 -335.196 160.056
29645 2 31.6838 -62.6689 -17.5797 36.7194 -59.8862 9.29383 11.9677 -25.8375 13.1735 -98.8084 101.923
5393 2 33.6081 -62.3175 -19.3606 -21.7442 -43.9317 55.8384 40.7134 -31.54 -27.1298 -95.8931 135.639
127 2 31.8842 -64.3197 -19.7244 32.6576 -73.0888 0.359834 -0.222519 -20.1879 12.5349 -96.5127 102.49
22 2 33.6935 -64.4166 -17.7632 21.3708 -12.7083 4.05727 -19.6435 -27.0591 9.69328 -98.8508 67.1356
27464 2 30.7607 -63.8066 -15.5792 13.3925 -11.4875 -24.3304 32.0777 -5.53212 -14.5414 -101.205 70.1185
24783 1 34.3863 -61.5284 -20.4581 83.7893 3.8911 -83.3558 -89.0596 -2.87387 97.2981 -345.597 270.531
25150 2 32.4067 -61.7353 -15.2793 7.8003 24.1991 -29.7647 7.44523 -15.0464 40.8332 -99.5248 90.2419
22179 1 30.1374 -65.1984 -16.1662 -14.3211 -11.5443 29.2943 -52.1149 30.5362 69.1657 -333.997 164.578
19993 1 34.8597 -65.1439 -16.913 -43.5593 -75.6949 25.9249 79.8061 32.0455 -53.6673 -339.101 197.287
10110 2 34.5473 -65.2765 -15.3066 32.0622 21.7432 -8.269 -27.0288 -11.9616 9.64979 -96.3945 64.9397
25063 2 34.7248 -60.4048 -15.2925 10.5989 44.1315 -46.5259 -5.49673 -68.6352 3.38603 -96.1981 143.39
29866 2 -23.2167 -59.0874 -15.8192 1.16769 8.05443 -34.3185 -2.44123 -34.222 12.5771 -92.5155 74.5449
10176 2 -23.0419 -58.2934 -19.4961 -45.0948 6.02238 -0.169919 -14.1422 -3.27095 -37.1104 -93.6733 84.2522
5212 1 -21.7325 -58.3342 -15.9247 44.5603 -0.823387 15.2137 -20.7553 27.1331 -47.5954 -355.308 109.023
22560 2 -20.4253 -58.0176 -19.8777 16.7201 -0.29338 -61.8478 23.6317 18.6714 -25.2624 -93.4253 98.8001
25096 1 -21.7589 -57.409 -19.0051 104.763 -101.479 88.4637 16.2438 -8.29566 59.3573 -351.432 225.849
126 2 -22.0424 -55.8643 -19.2791 -54.6869 119.553 -83.9024 -17.0404 17.815 -26.5589 -88.0507 200.606
2704 1 -22.6902 -54.467 -19.7593 66.1455 -210.397 189.305 2.8716 -42.2158 22.9 -357.211 364.208
9895 2 -21.616 -57.769 -17.3693 -33.5737 14.5489 -21.0439 9.14845 -18.0395 -11.2487 -90.3254 58.9641
22554 2 -24.3049 -54.4448 -19.5002 -10.3839 58.4899 -63.2767 3.90897 -20.5925 -27.6323 -88.5813 121.626
10411 2 -15.614 -58.8973 -16.9039 -22.4517 -1.73051 -25.775 31.7217 21.9988 -17.2983 -93.4186 76.6656
2774 1 -14.551 -58.8642 -15.652 59.9233 -4.1571 -24.0975 16.1305 -60.7506 61.1306 -345.367 169.838
7611 1 -17.046 -58.3609 -17.4943 -39.1568 -1.12934 94.5189 -144.821 -68.1226 32.5046 -350.471 306.991
29933 2 -16.9433 -58.1177 -19.0275 21.1758 -9.14387 -42.0785 62.9244 20.9124 -1.12143 -93.2405 127.266
2615 2 -14.5315 -58.1806 -20.0392 -7.41785 2.72517 6.78122 -2.41402 -9.37229 3.13036 -95.4449 21.6996
7509 2 -15.5201 -56.1428 -18.7483 -50.2648 29.65 -17.4838 -11.2473 -6.10089 -10.8458 -95.0274 75.4012
27459 1 -15.7476 -57.2559 -19.8698 26.3939 8.35386 3.15066 -26.6708 7.8823 12.7479 -345.343 57.0464
12483 1 -16.4626 -55.4412 -17.5302 181.562 -146.709 54.7297 70.2687 -34.3357 -22.1238 -348.855 319.424
7524 2 -17.2246 -54.386 -18.4026 -70.8566 88.479 -44.4381 -55.8147 15.8932 0.851785 -91.7581 178.836
537 2 -17.2336 -56.7655 -16.9994 -33.2692 3.55748 -42.0975 37.3794 24.5373 16.4932 -91.1376 92.5917
29743 2 -15.8881 -54.4553 -16.3164 -80.9188 70.8634 -1.6312 -45.7376 27.0697 27.2848 -92.3255 167.324
27577 1 -16.4761 -53.751 -14.9361 145.479 -132.982 59.2404 106.781 -50.3876 -41.8934 -350.607 328.713
5002 2 -15.2293 -57.5765 -14.8545 -62.8116 -3.81418 15.1104 -6.99287 27.8617 -6.7627 -93.5852 86.9946
15159 1 -13.1902 -59.0499 -19.8102 105.381 -75.3176 -49.7423 10.9085 9.85809 -30.6764 -343.825 179.322
5420 2 -13.0084 -58.5283 -15.9654 -23.6545 -11.5287 23.6448 4.89845 22.0117 -23.1152 -96.1844 70.2794
15238 2 -8.55303 -58.8729 -15.5658 37.1788 -33.0763 -20.2719 39.5035 16.0729 38.557 -90.6012 118.814
4894 2 -10.4834 -58.933 -17.1469 -26.233 0.846546 5.60221 8.36889 36.9156 5.24366 -93.0819 72.5643
5180 2 -12.7175 -58.5008 -18.3654 -50.4221 -0.263511 33.3247 0.137901 19.3659 -12.3364 -96.0346 83.1295
95 2 -11.9382 -58.3147 -20.6287 -79.2224 26.5404 29.2079 -2.34302 -38.9076 2.46181 -95.8378 126.693
10179 1 -11.9004 -58.086 -17.0199 78.7317 10.4435 -48.6731 -36.3159 -83.6295 42.2824 -343.791 206.147
12678 2 -12.1216 -54.0444 -18.3604 -44.7261 47.3734 -27.0237 10.4082 87.2318 44.214 -92.0582 190.219
5085 2 -11.556 -56.4783 -17.0183 -41.624 22.7887 12.5848 43.3953 59.4802 -7.52451 -93.8279 141.523
7575 1 -11.0622 -55.2646 -17.9584 98.8304 -83.7341 -2.41328 -76.7354 -142.291 -83.4256 -350.037 352.677
12791 2 -10.7724 -56.074 -19.3 -48.8564 -15.3941 28.5139 22.6364 31.3396 38.1537 -92.0597 115.619
7857 2 -9.88655 -54.3575 -17.2413 -8.44116 23.2578 -36.596 44.59 68.6314 21.1123 -92.2649 155.315
10378 2 -8.05641 -53.7824 -15.5902 45.8131 -27.5664 -79.9558 3.54373 17.0541 -53.603 -95.6582 146.641
12409 1 -11.043 -56.8699 -20.6653 86.4554 87.4021 -86.8453 19.6057 33.6745 -43.1743 -345.721 200.861
5252 2 -5.75948 -58.9063 -18.5452 35.7369 -48.8482 -32.6014 11.4618 21.6161 21.8687 -88.9912 96.3067
25049 2 -1.20659 -58.6317 -18.9688 32.3545 -37.9148 -63.1202 -10.577 16.6014 -4.47685 -89.3289 92.5572
7204 1 -2.84343 -58.3582 -15.3201 6.2169 13.7585 44.5978 68.8718 21.1666 -71.1152 -349.42 178.848
12638 1 -2.2713 -57.8093 -19.8016 -16.2334 64.8948 54.4936 15.1564 -86.4079 22.5531 -358.927 174.528
15056 2 -3.52074 -57.4753 -18.8936 -24.6952 -15.8268 -16.9827 -28.3041 45.2006 8.37407 -90.566 93.8763
20440 1 -5.10577 -57.3808 -18.5739 50.8152 26.4335 -13.2394 45.9681 -62.0565 -61.1662 -356.196 179.588
17647 2 -5.27068 -56.4361 -17.1861 -17.0991 35.219 -18.1122 -28.7416 -10.7596 59.5073 -89.6033 127.437
10065 2 -3.67422 -54.6139 -16.72 3.87967 54.7364 -53.3084 -12.1814 -6.26902 2.29319 -92.3384 96.665
5006 1 -4.5285 -55.6727 -15.8971 5.17936 -95.1122 109.559 54.543 17.3836 -44.3264 -348.541 217.135
7748 2 -5.67952 -56.6718 -19.9152 -38.5948 -21.1062 24.1915 -9.70893 47.5884 9.97966 -87.9646 102.594
14866 2 -1.35213 -56.5129 -20.2958 37.0217 -1.91922 -67.781 20.6102 38.75 6.25334 -83.2095 119.646
4798 2 -1.32667 -58.0515 -15.6558 31.3372 -9.47098 -66.413 0.115076 11.9539 42.6666 -91.7147 114.549
7508 2 -3.73708 -56.9448 -15.3333 5.62075 39.1432 -41.8437 -47.8199 -8.63813 33.8434 -92.564 124.451
12479 2 -2.87643 -58.9398 34.9059 -22.3715 -61.4246 26.6201 -35.4344 40.265 5.62263 -87.7706 120.682
24848 2 2.89828 -58.6975 -18.6636 52.9866 -20.7986 -86.4892 11.6451 -59.4504 14.44 -85.9785 161.994
15171 1 0.292802 -58.1957 -15.859 -102.39 48.4386 122.993 -33.1269 -44.7789 -74.5671 -356.643 256.009
25535 2 -0.431667 -54.651 -18.6074 -7.89398 -3.91745 -73.0977 -41.0355 23.9234 16.8124 -86.7902 110.197
12582 2 -0.0338646 -54.0138 -16.2302 51.7008 -57.2636 -57.0786 -20.9799 9.27056 -1.10981 -90.3888 115.91
17559 1 -0.0169107 -53.3368 -17.6975 -85.6587 117.747 105.15 91.4911 -22.8643 15.2901 -357.312 257.588
10108 1 2.6414 -57.1252 -19.3644 -152.353 82.2748 162.005 31.4844 107.662 -54.6673 -363.535 356.127
10550 1 -0.153829 -55.5419 -19.9559 -102.835 -5.21298 142.834 17.1973 -49.9362 -28.587 -368.908 238.161
383 2 3.40393 -55.9529 -18.5129 75.8621 -56.631 -72.2705 -21.4763 -38.9565 49.4618 -87.0271 182.063
24898 2 1.04905 -56.5242 -19.5685 79.4712 -30.0377 -93.6217 -20.4575 -22.0327 19.4424 -83.6078 163.841
2778 2 3.91649 -53.5153 -17.6586 64.52 -13.958 -118.047 -44.2082 -27.6078 34.7287 -85.3217 192.172
20458 2 0.605024 -56.5661 -15.9623 40.3134 7.66291 -66.8814 11.7661 4.43653 20.5829 -88.4863 103.933
17776 1 4.58139 -54.9808 -17.9885 -136.696 109.843 132.76 84.0673 59.2219 -79.3714 -358.81 342.898
20092 1 0.236334 -55.1614 -15.2086 -101.672 -21.8234 142.772 15.6868 -22.4459 -12.3724 -354.409 222.079
15179 2 3.21901 -57.2297 34.965 44.4999 -76.0197 -55.294 -13.7482 -51.3427 31.7731 -85.4364 154.792
12766 2 5.31517 -55.5489 -16.6749 54.186 -71.0055 -45.8086 -35.0279 -36.9884 13.1929 -89.2341 146.495
12892 1 7.84823 -57.9022 -18.3039 1.16096 -55.0601 128.177 110.819 -77.9859 -36.6517 -348.862 292.494
18094 2 9.4336 -57.6242 -18.1701 21.1258 25.8353 -75.8463 -57.7222 31.0112 6.20696 -92.9418 151.257
12706 2 5.66231 -55.0262 -19.2441 16.2169 -48.832 -34.1197 -16.6817 -9.1604 24.7357 -89.5472 80.0808
15105 2 7.15074 -57.2751 -17.0406 4.79376 -13.9952 -56.0236 -54.7234 -11.299 15.6876 -91.8324 114.08
15003 1 6.51863 -56.3338 -15.9326 -42.7517 109.653 20.8343 51.3788 109.301 -1.14478 -354.914 247.676
15202 2 8.41894 -54.7781 -19.4535 -9.18718 -20.338 -37.6703 38.8638 -3.8984 -5.6095 -90.6126 72.7268
27863 2 9.0437 -53.786 -17.1859 -22.9925 0.868631 -59.6706 15.518 -5.63674 19.14 -89.7219 68.6044
15100 1 9.49061 -53.896 -18.7297 13.9178 24.3259 110.385 -53.9447 50.367 39.6658 -355.597 171.671
15411 1 8.4314 -53.7767 -15.6831 19.0809 -38.1655 115.087 2.71434 4.87075 -108.101 -357.53 230.524
12597 2 7.4799 -55.1239 -15.4929 7.35509 -16.9529 -38.9636 -5.07899 -32.3387 25.5157 -89.5403 82.3304
17654 1 7.06854 -55.3993 -20.0528 41.5497 77.2705 11.5213 -30.894 -27.6187 -30.0161 -352.888 105.38
17580 2 7.2643 -56.9938 -19.5515 -19.0816 -14.2172 -26.3202 -26.051 35.9049 29.2141 -92.4972 92.6019
17655 1 10.6667 -58.0193 -17.2192 -29.3759 -9.32907 144.297 56.3529 -39.2964 -15.9173 -346.825 204.945
27473 2 5.95032 -57.4699 -14.8939 8.4994 -52.5968 22.2488 -17.8615 -64.8451 -25.0004 -87.4204 142.157
22497 2 11.098 -56.9044 -16.0808 5.34139 24.4902 -77.3877 -26.9296 29.6306 4.56985 -91.6777 116.906
12595 2 11.099 -54.2719 -18.8097 -7.61972 -12.8655 -66.0073 -2.43232 -21.5934 -25.4217 -88.4 80.5339
17493 2 11.9973 -58.0914 -18.0593 14.9865 -2.38088 -53.2933 10.7621 -30.3311 14.8321 -92.1587 86.8635
12697 1 13.3652 -58.0635 -18.7987 -30.1208 -0.553651 100.894 -69.228 71.484 -42.9995 -355.836 222.305
19882 2 16.0852 -57.5847 -16.185 66.7057 -85.0676 -24.1929 -11.8028 19.0221 -20.6149 -89.0025 142.408
22450 2 14.2127 -57.0826 -17.7819 41.7946 -37.9045 -55.9483 26.5528 -15.8164 0.442685 -89.2773 104.794
22407 1 14.9065 -56.5524 -16.4141 -120.113 72.2827 82.1886 -14.7524 -5.41257 15.1684 -358.325 201.125
19689 2 15.6576 -55.0927 -16.4689 26.6726 6.12465 -67.665 -15.2445 4.80452 17.3708 -86.7564 95.1578
20296 1 12.5397 -53.7043 -19.2751 7.61289 32.2873 108.002 56.654 -19.7907 1.01802 -362.737 137.902
20275 2 13.5795 -57.4381 -20.275 -3.12994 6.19017 -28.7282 14.4837 -36.8661 7.60872 -86.2068 76.5575
17745 2 13.6595 -56.3486 -15.357 33.881 0.508881 -26.5347 5.69569 -1.12444 1.31365 -88.0118 53.4215
12762 2 13.3665 -54.8787 -20.012 -2.85579 -26.4695 -39.4406 -54.393 -17.5195 -13.567 -85.4237 106.681
17766 2 15.7796 -56.1174 -20.3016 26.6389 -82.92 -1.25176 -24.1643 -35.3729 -8.24247 -85.5291 124.236
20186 1 16.8866 -54.3229 -17.1851 -41.257 -1.14876 114.258 18.353 -26.7366 -70.0579 -363.71 193.483
27553 1 14.237 -56.0314 -20.8279 9.40986 82.6788 5.87194 68.7179 83.3677 35.7377 -365.274 210.923
19971 1 17.1422 -58.7389 -16.0102 -81.9156 105.219 8.73145 54.2388 -39.7327 -26.7314 -355.885 204.886
22672 1 12.1022 -56.6209 -14.8342 29.0214 -56.8798 71.8795 24.0833 -55.9419 -18.4496 -355.575 158.263
17764 1 18.6398 -59.1493 -20.2824 75.2182 -24.0431 -39.9224 -14.6999 0.00215857 47.3447 -356.995 138.036
20068 1 17.2551 -56.2188 -19.7688 -25.9786 125.2 -10.1031 15.255 85.1916 -13.3348 -361.393 209.073
17856 2 17.279 -55.4301 -18.3372 7.82277 -41.875 -22.2198 1.47524 -17.8712 19.1537 -86.6644 62.8063
25257 2 20.1023 -58.6343 -20.5495 -64.1824 0.96794 32.4207 7.29378 1.5134 -41.6381 -89.9994 112.475
19900 1 22.2738 -58.6165 -18.0797 117.181 -38.9533 -36.0522 -27.9506 -71.3633 42.2801 -353.543 216.606
22464 2 21.0981 -58.4502 -16.9327 -31.2338 9.94816 21.3993 -15.848 -2.09285 8.69355 -92.3283 57.376
22305 2 18.6498 -58.3221 -16.1646 -6.66129 -28.2406 5.93974 -29.3934 22.9465 16.2841 -92.1461 76.5731
17607 1 20.1459 -58.067 -15.6845 47.3879 -0.204265 -32.7403 45.3046 -3.75561 -42.9844 -346.441 128.899
22745 2 17.8338 -57.7691 -20.0256 -10.2616 -37.26 12.8164 -7.62543 -28.6088 -5.59753 -88.3667 67.8852
22379 2 17.9394 -53.8317 -16.0709 10.8312 10.1942 -55.7034 3.45565 17.7146 16.3946 -87.2023 78.5396
17477 2 22.0275 -57.5894 -19.3083 -65.5324 1.10721 45.6258 33.3097 22.5994 -49.127 -87.8961 146.597
22749 2 22.616 -53.4404 -16.1877 -19.1784 18.2296 -21.0705 2.41864 -67.2661 -75.6052 -92.0478 179.482
22594 2 20.4183 -56.6031 -15.059 -33.7792 29.7371 -10.0925 -7.39308 -5.09652 -1.02978 -94.9964 57.7578
25072 1 21.2916 -57.5699 -20.7192 138.171 11.0878 -81.2993 -65.7651 34.9878 118.058 -356.805 308.038
24965 2 18.1855 -55.1584 -20.5971 -7.46241 -32.7998 9.6032 34.7365 -44.4179 -6.64796 -84.6288 105.057
17685 2 20.2185 -53.5502 -20.8651 -58.1713 39.3542 -2.9965 68.9337 -32.11 -2.55408 -85.9273 156.661
27468 2 28.3073 -59.0466 -17.1106 -63.6789 92.9027 -54.0961 -20.02 -9.61395 -31.378 -91.9088 165.96
20045 2 23.6714 -58.1607 -17.3994 -18.2571 34.071 -36.7528 43.0064 30.1916 -24.9044 -90.6544 119.131
17499 1 24.0529 -54.2017 -15.9413 58.2913 -70.56 26.7153 13.7504 85.057 168.031 -349.752 347.139
20057 2 24.1099 -55.8283 -16.1127 -29.3228 64.4604 -34.8551 10.996 -34.0104 -63.0029 -92.2622 158.385
17591 2 26.2124 -57.4995 -16.734 -30.5392 44.6626 -47.5985 14.6467 -18.8817 -67.3075 -93.2067 150.111
22408 1 24.6555 -57.4396 -16.3402 14.0892 -101.775 87.0601 -66.5178 10.3662 82.9175 -348.822 247.843
17487 1 27.8085 -57.4114 -17.1881 123.247 -94.0162 31.1188 -8.14649 15.2982 157.809 -350.295 333.597
27560 2 27.6529 -56.4597 -18.5652 -92.958 23.0276 54.5427 -4.70516 -25.6143 -113.178 -90.6042 242
183 1 27.4818 -55.0832 -19.3985 159.499 -21.9756 -124.797 49.4965 52.0369 173.05 -347.624 409.239
25075 2 24.8368 -53.5749 -17.2329 -53.76 3.85058 16.184 -3.73582 -54.1248 -97.1502 -94.0471 203.289
27979 2 26.7336 -53.7898 -18.7309 -77.4088 35.5094 37.0894 -16.6741 -32.9073 -74.2181 -95.6966 183.137
22413 2 28.7656 -56.3365 -16.3314 -28.2217 7.91166 0.382027 6.65799 21.4427 -75.2002 -93.4896 139.885
15233 2 26.5058 -55.1711 -20.7541 -67.4173 4.38046 53.8423 0.00683697 4.57445 -28.8553 -94.4631 117.104
24960 2 28.9529 -54.744 -19.9624 -39.2239 4.46148 42.0196 -21.21 -15.6434 -57.6795 -94.2848 130.477
25280 2 24.6599 -58.2824 -15.0169 -11.3394 31.4897 -36.4008 3.51007 -20.3158 -26.6321 -95.489 83.2991
2315 2 34.9046 -58.9362 -17.1369 -10.9109 47.8826 -27.4581 -35.0379 -64.708 -22.3878 -91.8568 149.838
29875 2 32.4647 -58.292 -16.1126 -26.0389 63.2952 -40.2686 -14.5022 -50.8001 -32.3758 -93.219 144.816
17696 2 34.9722 -54.0448 -17.3516 -46.2458 49.9573 -18.5541 28.6189 -40.0559 -41.2438 -87.2571 140.469
19982 1 34.7263 -53.8317 -18.9031 36.0829 -81.0787 53.9767 -49.0538 41.2168 77.1618 -357.523 215.222
107 2 34.0116 -56.3456 -16.5651 -59.0502 38.1386 -23.8448 -19.4639 -31.4654 -55.9486 -91.1205 144.087
24949 1 32.8284 -56.2605 -19.785 97.0203 -11.5757 -82.8167 80.3053 -48.2324 77.2779 -357.855 262.386
27763 2 33.2437 -57.4078 -18.683 -61.5403 42.7871 40.1722 -45.346 -8.56645 -45.9826 -87.3417 152.808
2395 2 33.6177 -54.9447 -19.2983 -36.586 8.70345 13.2099 -3.19825 11.7463 -45.1017 -89.3363 93.9289
20093 2 31.3059 -55.9454 -20.0514 -43.1969 -11.5861 26.1512 -38.1189 38.521 -43.8307 -90.0884 134.872
27400 1 33.6779 -57.8411 -17.1564 96.5892 -119.574 26.4682 79.4387 89.4025 100.06 -353.899 330.805
27735 1 34.2305 -54.7953 -16.1478 131.362 -105.753 35.3105 -13.2232 20.7886 72.8881 -356.06 245.832
25176 2 32.8855 -53.8962 -15.9926 -67.6705 65.5565 -37.2923 12.1138 -1.57702 -41.6091 -90.2947 142.361
24873 2 30.3819 -53.9499 -15.7912 -35.9758 70.736 -41.3795 23.7269 7.98869 -75.551 -90.3209 176.061
20079 1 29.7702 -55.4238 -15.3763 38.2328 -37.3245 30.6455 -22.2812 2.16158 154.619 -348.288 280.031
25042 2 30.9853 -56.4656 -15.302 -24.6177 -5.43569 -32.1704 15.5337 -9.85751 -86.8553 -94.8013 155.617
27483 1 30.2564 -55.0461 -20.8546 61.9389 -13.5603 -35.2873 41.25 -8.57522 83.6989 -345.844 184.809
23136 2 -22.2676 -53.1622 -18.9303 -10.0413 50.3807 -87.0593 37.5312 30.5635 10.8582 -89.0646 147.031
208 1 -22.1997 -51.5443 -18.8875 -39.3272 -6.39038 123.251 -28.952 -75.4943 -65.4966 -349.603 233.76