ITEM: TIMESTEP
680000
ITEM: NUMBER OF ATOMS
29952
ITEM: BOX BOUNDS pp pp pp
-2.5615833775063237e+01 3.5601128117061187e+01
-8.4067371220741634e+01 9.4052665554940361e+01
-2.1035324467156940e+01 3.4903177627851115e+01
ITEM: ATOMS id type x y z v_StrAtomXX v_StrAtomYY v_StrAtomZZ v_StrAtomXY v_StrAtomXZ v_StrAtomYZ c_PEAtom v_VMS
4896 2 -16.8944 -70.5084 -17.5908 -301.394 53.1135 -518.643 -0.568704 42.2609 24.4134 -167.442 506.987
7392 2 -12.5026 -70.0336 -15.1302 353.867 -493.499 -868.446 -39.5616 27.7727 0.890626 -272.29 1087.82
4982 1 -16.5272 -69.228 -16.8551 860.935 601.672 1533.29 272.417 50.2272 -66.5257 -817.074 968.029
7478 1 -11.1451 -69.1598 -15.1737 692.299 288.914 1953.98 9.48223 -100.547 61.8494 -724.984 1518.41
2400 2 -20.0283 -66.932 -18.376 287.469 -489.537 -204.398 -80.4351 565.209 -72.4532 -272.236 1207.07
4901 2 -21.3546 -66.5541 -15.082 103.038 -570.111 -405.418 -27.4345 253.419 -144.106 -281.248 791.588
2316 2 -22.4066 -66.4504 -17.5272 -509.114 -481.232 -220.923 -77.4055 -132.493 -31.0395 -274.571 386.425
2494 2 -22.4457 -66.6088 -20.2768 -136.54 -546.967 -95.1943 -83.685 540.952 -303.226 -269.104 1166.99
2410 2 -24.1453 -66.5094 -15.4299 51.7967 -645.133 -601.405 -345.072 -198.245 -62.2808 -277.404 971.551
2486 1 -21.5575 -66.3838 -18.9366 1242.98 625.971 1084.6 -67.3235 -20.4325 33.4859 -772.64 571.203
2402 1 -22.7123 -66.1836 -15.991 482.804 999.534 1205.52 89.359 288.776 279.068 -778.51 961.067
2407 2 -23.9832 -64.7518 -20.0386 -450.352 -603.348 -318.33 -39.6356 -223.332 50.7118 -268.362 472.33
4985 2 -21.1735 -64.8378 -19.0262 -677.712 -440.546 -581.593 4.47282 -41.2676 6.24635 -270.104 219.035
2408 2 -22.7641 -64.5164 -15.893 -372.462 -200.639 -651.22 -115.632 -71.4067 -75.5703 -264.397 477.145
2401 1 -24.8886 -63.7521 -19.1252 757.245 1017.58 841.484 64.6891 44.3151 201.387 -789.367 439.38
2409 2 -24.0036 -63.3216 -17.8263 -634.467 -618.632 -499.564 -153.122 -32.3856 -78.2044 -267.054 328.857
4897 1 -20.7549 -63.3052 -18.7328 406.247 752.275 828.97 -34.1905 161.85 487.548 -783.499 973.323
2403 1 -22.9393 -63.1526 -16.7126 755.516 758.217 1005.52 76.2281 9.16905 -159.953 -794.405 395.313
2406 2 -21.5648 -62.7567 -17.5003 -464.082 -394.945 -551.531 -0.673296 -120.181 -72.9676 -269.631 278.886
2412 2 -23.345 -61.9084 -15.729 -553.829 -363.358 -594.04 -119.732 -89.3724 186.361 -258.861 465.528
11 2 -25.235 -62.5467 -20.0754 -473.798 -618.219 -368.383 -54.2853 -79.0943 -159.048 -272.711 388.189
4905 2 -19.2194 -63.2892 -18.4255 -600.913 -554.677 -703.056 85.4744 -104.57 -148.096 -273.202 371.231
2507 2 -20.8994 -62.3568 -19.9731 -443.761 -418.785 -675.131 204.754 -137.161 -49.7329 -273.561 499.566
2416 1 -25.5527 -66.0736 -14.7373 474.687 1050.55 1292.89 -128.903 -108.525 78.1097 -755.26 795.853
4912 1 -19.8866 -66.3578 -14.5498 452.406 696.962 1100.55 263.6 -38.8953 -37.9657 -744.474 733.964
4904 2 -18.8652 -66.834 -15.8968 -287.14 -401.086 -443.827 -408.798 262.823 8.30555 -304.938 853.501
4900 1 -18.6116 -66.8457 -17.5267 1148.74 644.412 916.757 100.843 -31.7873 367.567 -766.878 793.741
9916 1 -10.4033 -65.8137 -6.5998 645.036 1214.07 883.855 -235.264 -211.615 -336.47 -824.641 940.726
4942 2 -17.6383 -65.6319 5.62982 -406.123 -711.976 -390.09 -254.601 -219.683 226.047 -213.623 768.926
4812 2 -17.1893 -68.9735 -15.3548 -443.51 -532.947 -712.686 -229.105 -172.433 -3.43581 -265.462 550.529
7396 1 -13.7095 -69.0299 -15.4497 381.01 347.707 1947.83 54.3544 41.0553 47.6035 -744.252 1590.27
7481 2 -14.9101 -69.0212 -16.4984 175.836 -175.333 -784.062 -142.526 351.685 -176.315 -275.759 1110.35
4903 2 -17.9521 -65.4289 -17.7815 -458.183 -270.473 -617.572 145.123 -26.4598 -144.734 -273.039 467.638
7486 2 -12.3885 -67.9698 -15.8459 88.1583 -24.5664 -1213.07 -144.296 81.4308 -88.6873 -301.067 1290.42
4990 2 -17.378 -67.9171 -17.5425 120.799 -388.974 -629.326 -432.572 262.997 -208.823 -257.228 1157.52
4898 1 -17.7168 -67.7045 -14.7083 525.095 582.677 1229.01 447.282 10.9501 -82.3408 -730.614 1038.83
7394 1 -12.2825 -66.2886 -15.6644 789.74 370.397 1509.91 41.2046 -67.079 274.017 -763.904 1113.71
7402 2 -13.5712 -65.9928 -14.7057 109.925 -527.096 -682.761 50.0098 -193.075 52.0228 -266.457 810.336
7400 2 -12.5543 -65.495 -17.0243 -399.386 -208.679 -374.553 -67.6369 266.73 -450.636 -275.923 932.001
7401 2 -14.2078 -64.3663 -19.0459 -354.759 -493.169 -227.887 -13.066 413.383 -227.988 -274.612 849.658
7398 2 -11.6891 -64.3895 -19.2501 -438.621 -503.444 -449.591 6.26607 -185.846 -85.146 -271.021 359.298
7395 1 -12.8951 -64.3477 -18.1511 746.962 924.938 1139.15 -173.445 -104.17 470.061 -782.785 949.402
7393 1 -15.3787 -63.7045 -19.9895 720.876 842.83 1032.89 27.9193 157.886 304.733 -769.792 655.654
4899 1 -17.799 -63.8099 -17.9601 614.012 863.679 964.855 -141.16 -47.5288 123.046 -785.95 458.047
4908 2 -17.4435 -63.0459 -16.632 -520.704 -312.716 -620.879 60.1755 27.2337 88.8138 -264.657 332.988
7404 2 -12.9194 -63.0289 -17.1313 -353.881 -154.398 -28.9915 96.3385 18.2364 392.4 -268.152 755.851
4902 2 -16.5654 -63.5026 -18.989 -287.941 -498.348 -639.196 145.96 -185.034 -234.029 -271.921 651.674
7397 2 -16.3814 -66.8052 -14.4911 300.179 -521.35 -598.734 257.01 145.481 -94.3562 -281.173 1016.29
5003 2 -14.6832 -62.3794 -20.5975 -385.743 -502.035 -635.926 19.082 -146.716 -128.695 -281.3 402.96
9893 2 -10.8825 -66.1822 -14.9279 -140.138 -315.618 -530.334 -289.529 224.668 -65.829 -269.787 728.342
7499 2 -10.6415 -62.1716 -20.0965 -432.128 -259.661 -651.902 37.9599 22.4107 -1.20477 -277.487 348.974
7493 2 -11.2133 -62.2942 -15.1291 -237.43 -373.125 -457.708 131.655 249.612 76.9092 -268.391 541.947
7399 2 -14.2808 -68.1909 -14.1666 -543.433 -28.6805 -586.695 -336.427 -252.707 391.516 -262.626 1131.41
7436 2 -11.5319 -64.5458 4.27844 -533.132 -442.238 -703.158 16.9132 81.1518 -202.822 -224.23 443.452
5002 2 -13.7564 -61.7918 -14.8008 -376.455 -370.534 -336.356 43.1283 -190.525 44.4392 -268.605 349.012
4955 2 -18.1218 -67.5996 6.28632 -317.807 -761.911 -449.7 -204.572 -314.297 211.01 -216.753 843.518
4906 2 -18.9564 -67.4088 -13.7716 -19.562 -326.939 -943.022 -266.407 -10.979 69.458 -273.332 944.014
4915 2 -19.6818 -64.9552 -13.9046 -531.144 -575.206 -269.897 63.4009 -27.6369 238.81 -275.09 516.859
2419 2 -25.2456 -64.948 -13.6053 -460.493 -121.043 -179.28 92.7313 180.236 338.85 -268.849 752.702
2519 2 -19.9555 -62.5215 -13.4684 -463.51 -375.512 -533.041 -110.609 79.4711 -92.2206 -253.602 316.008
2422 2 -24.0986 -65.9229 -7.98107 143.102 -370.641 -760.847 -3.78953 -107.412 -40.7595 -250.593 810.121
2414 1 -22.4843 -65.8483 -8.18746 985.566 1156.25 566.223 -24.5829 57.1435 207.922 -821.652 646.419
2328 2 -22.2809 -65.5119 -9.68396 -675.505 -354.73 -347.191 -21.5406 -71.7026 -340.161 -246.245 685.066
2415 1 -22.205 -64.1704 -10.6963 1061.24 1185.11 989.974 68.6629 142.71 -105.538 -826.592 371.36
2421 2 -23.4765 -64.1256 -11.7258 -163.102 -532.595 -244.496 -86.5612 308.302 19.6865 -248.459 649.513
2418 2 -20.928 -64.1236 -11.7188 -543.783 -493.047 -323.683 -37.2382 -329.635 117.678 -251.861 641.509
4909 1 -19.6849 -63.8855 -12.6844 921.646 613.646 956.634 -18.1347 71.6845 -234.037 -815.791 536.271
2413 1 -24.9617 -63.8553 -12.402 1118.33 880.588 954.283 96.6405 8.66259 -42.0823 -828.77 279.265
23 2 -25.0365 -62.3736 -12.927 -538.347 -473.73 -603.601 -117.891 67.0754 43.7326 -254.452 271.256
2424 2 -22.2198 -62.9891 -9.6212 -572.989 -318.004 -154.179 -20.6912 -15.2342 352.64 -248.443 713.215
14 1 -22.3424 -62.0155 -8.24285 1212.47 1249.67 1103.83 116.427 223.762 -36.3618 -843.394 460.511
22 2 -23.7837 -62.4256 -7.62378 -349.062 -532.74 -389.345 87.371 -332.928 -82.0385 -239.089 635.276
4913 2 -21.5475 -66.9501 -7.43227 -233.564 -801.129 -111.763 -12.924 243.627 10.4276 -229.141 764.844
2420 2 -21.5953 -64.8178 -7.28033 -255.293 -1025.79 -379.786 -16.2215 118.902 -122.816 -225.252 775.688
4917 2 -18.4353 -63.9067 -11.7073 -684.304 -496.114 -449.758 25.1985 32.2302 211.725 -260.826 431.035
4824 2 -17.9916 -65.286 -9.59728 -758.086 -370.939 -361.726 -132.74 -107.757 -256.166 -243.855 661.885
7308 2 -10.8257 -68.3311 -13.8097 -698.985 83.72 -577.785 255.897 234.518 386.175 -258.844 1158.14
7408 1 -14.8512 -66.6496 -13.8707 982.092 752.99 1018.18 25.6752 128.833 -254.759 -772.729 555.461
5009 2 -16.0244 -61.8545 -7.43955 -470.806 -725.314 -447.133 162.866 205.967 199.912 -232.49 630.95
7320 2 -12.0006 -65.6086 -9.61858 -609.507 -437.079 -355.366 178.639 -103.343 -258.477 -244.505 615.389
7406 1 -12.4143 -66.0502 -8.10258 803.559 1239.05 1215.32 -140.728 -207.947 36.7104 -810.884 610.79
7414 2 -14.034 -65.9795 -7.89197 52.0125 -411.02 -644.175 -60.2642 -149.012 25.4918 -261.679 675.409
4910 1 -17.7391 -65.83 -8.09872 837.43 1119.03 1003.98 135.87 44.4685 30.9545 -811.522 352.598
7411 2 -14.9239 -65.7497 -12.6144 -631.429 -331.772 -730.414 -21.7533 77.2761 119.794 -270.759 437.767
4920 2 -17.7285 -62.7537 -9.36595 -588.595 -610.934 -442.301 45.7965 -107.315 153.098 -252.395 369.225
7405 1 -14.8131 -64.3737 -11.8519 831.217 618.462 913.903 -17.085 -29.3157 -148.525 -821.022 373.265
4914 2 -16.0509 -64.2137 -10.8142 -589.596 -554.9 -609.891 -141.28 -90.4302 125.343 -247.171 365.876
7413 2 -13.4043 -64.1818 -11.1345 -380.494 -580.034 -576.705 157.476 16.0595 135.537 -250.903 411.635
4911 1 -17.5419 -63.9659 -10.4175 855.842 989.364 642.295 66.2273 123.217 -16.8453 -832.051 389.23
7407 1 -11.9418 -64.2568 -10.4745 838.534 1011.1 807.98 -173.603 -32.2206 -4.15269 -837.51 359.952
5015 2 -14.9707 -63.1744 -12.8535 -584.782 -457.107 -691.106 94.2495 -65.2049 49.011 -258.447 296.295
5006 1 -12.022 -61.851 -8.45009 1131.65 1044.16 897.924 54.0639 -79.5654 -296.948 -856.409 578.04
9931 2 -10.3409 -64.9694 1.39857 -706.235 -414.119 -684.071 65.2029 -69.0146 -76.7387 -221.888 352.22
7416 2 -11.7356 -62.9827 -9.52579 -603.11 -438.558 -708.394 47.9902 71.8959 168.006 -241.097 403.214
5014 2 -13.4739 -62.2855 -7.74629 -297.685 -463.715 -388.904 190.93 -283.121 32.8925 -232.224 611.411
7409 2 -16.6201 -66.8563 -7.65197 -88.9982 -1005.68 -369.834 16.9438 172.852 27.3676 -235.573 868.606
4916 2 -16.5223 -64.7335 -7.63572 1.19906 -822.942 -601.217 15.0315 39.817 17.3604 -217.056 742.951
9905 2 -11.446 -66.9507 -7.20836 -17.5773 -886.712 -380.236 171.805 430.363 116.131 -228.611 1120.88
7420 1 -15.4181 -65.8894 -7.1333 563.526 1220.18 936.268 -99.5235 -2.87819 -226.018 -823.327 712.994
7410 2 -10.7251 -64.3444 -11.4848 -471.936 -690.424 -747.048 69.9029 238.314 116.861 -249.096 537.889
7444 1 -14.1795 -66.4416 6.10046 837.599 989.928 1391.24 -253.68 -1.53232 -220.479 -852.625 764.385
4918 2 -19.1258 -65.8751 -7.26122 -136.377 -449.896 -437.856 38.1395 -406.032 4.27628 -255.371 770.499
2513 2 -21.1458 -62.1162 -7.14806 -241.799 -848.572 -171.527 -31.0527 171.69 112.032 -239.666 738.058
2428 1 -25.5533 -66.1126 -7.26403 1038.9 1124.14 930.868 -18.9425 -33.1078 60.7088 -821.6 208.727
28 1 -25.0541 -62.1076 -6.64147 1153.36 1017.64 1217.67 211.436 157.192 -28.6848 -846.39 491.929
4924 1 -20.5909 -65.9134 -6.5607 986.554 1214.83 701.674 -16.69 -0.672978 3.27582 -819.096 446.279
2431 2 -25.1511 -65.8657 -5.75188 -762.632 -364.792 -444.17 93.1715 46.2496 248.873 -240.67 592.682
4927 2 -20.4349 -65.6098 -5.0384 -665.077 -413.27 -203.644 125.128 60.5292 382.502 -244.502 810.568
2432 2 -23.3869 -65.0363 -1.10111 -656.452 -376.763 -221.233 174.201 -260.949 -99.1057 -262.27 686.077
2433 2 -24.0346 -64.584 -3.68435 -611.948 -720.283 -159.507 14.7202 95.1475 75.9512 -232.524 557.287
2425 1 -25.2446 -64.6778 -4.662 1131.43 1288.23 588.782 25.2392 42.1728 -181.011 -855.424 713.92
2430 2 -21.5129 -64.3278 -2.96663 -184.623 -549.714 -307.003 29.2767 -425.052 -5.11308 -242.009 805.138
4921 1 -20.167 -64.4089 -3.91081 1437.52 1168.48 920.681 -68.4816 179.434 -101.644 -846.112 584.902
2427 1 -23.0243 -64.132 -2.40383 1372.38 751.322 929.966 -27.2335 275.307 70.0478 -844.74 742.297
2531 2 -20.0705 -63.1343 -4.90516 -695.441 -300.622 -208.222 -4.14783 -79.8592 -229.619 -241.452 615.029
2436 2 -23.3261 -62.627 -2.22132 -679.763 -429.172 -571.841 40.2615 -48.6504 -158.374 -242.952 366.892
2524 1 -19.9094 -62.007 -6.07989 1365.54 1076.3 911.816 -49.4701 219.189 -27.6664 -853.674 558.626
35 2 -25.2677 -63.2508 -5.49536 -653.423 3.2474 -385.186 29.3487 -230.91 -252.945 -242.24 825.536
4929 2 -18.7628 -64.6083 -3.06286 -168.933 -599.506 -240.227 -65.7681 267.061 0.695195 -236.755 621.869
2518 2 -18.5092 -62.3106 -6.84197 -443.045 -498.912 -227.45 28.2366 -286.126 38.1425 -235.963 560.364
4935 1 -17.7125 -63.5303 3.14641 808.311 1008.43 932.547 -45.9828 -14.3871 -116.463 -859.002 279.779
7412 2 -11.5768 -64.8044 -7.22698 -11.1386 -796.632 -483.453 201.472 324.337 200.602 -210.238 1013.49
5020 1 -14.6093 -61.9271 -6.63823 1141.15 965.711 1291.66 -49.0221 164.847 15.2316 -861.299 411.419
7422 2 -11.1601 -64.0566 -3.08534 -309.335 -682.647 -375.31 23.094 -384.462 182.956 -222.174 815.192
7332 2 -12.7986 -67.701 -1.79137 -613.333 -166.698 -547.518 74.5249 11.0074 -145.247 -123.015 504.712
7418 1 -12.9627 -66.718 -0.66431 1530.06 1093.8 1155.75 23.4807 149.112 141.801 -926.206 543.888
7423 2 -15.1458 -65.5532 -5.63072 -668.921 -523.545 -524.569 147 -40.282 298.171 -238.95 597.829
7424 2 -12.7323 -65.109 -1.14969 -586.721 -220.92 -349.334 114.582 -69.8504 -283.81 -216.224 631.661
4928 2 -16.7963 -65.2677 -1.217 -388.854 -443.616 -330.949 -102.408 123.406 -146.148 -234.926 388.265
7425 2 -13.6339 -64.5108 -3.64017 -524.35 -747.112 -157.645 110.65 133.148 197.612 -223.99 687.641
4926 2 -16.2131 -64.3541 -3.57757 -532.749 -709.29 -366.219 175.871 -181.675 -47.4306 -225.657 535.59
4923 1 -17.3003 -64.3421 -2.39921 1136.02 902.322 845.866 -64.9902 101.713 -65.3476 -872.369 357.09
7419 1 -12.6475 -64.0794 -2.38304 1115.48 1200.67 1187.15 -177.458 108.798 -122.032 -877.71 425.381
7417 1 -14.9221 -64.378 -4.56386 1265.07 1318.82 591.327 -146.402 24.4389 -379.91 -870.793 996.05
4932 2 -17.3171 -62.8092 -1.99516 -706.894 -762.883 -709.32 106.685 -16.3694 -155.533 -232.314 332.453
5027 2 -14.7035 -63.0215 -5.46422 -619.428 -333.589 -339.193 99.7187 -162.059 -130.191 -233.675 489.493
7428 2 -13.0025 -62.5664 -1.94676 -545.427 -466.621 -552.973 57.2682 1.85026 126.466 -237.032 254.347
7426 2 -14.5925 -66.7297 -0.272606 -73.6356 -581.814 -709.838 31.3889 167.381 -213.227 -210.464 750.398
4944 2 -18.2124 -62.818 4.43446 -791.302 -378.611 -435.784 136.789 66.0205 246.581 -239.504 633.722
2543 2 -20.1234 -62.625 -0.157801 -588.928 -314.184 -429.228 11.9649 14.6443 -170.142 -240.452 380.828
2426 1 -23.7504 -65.9412 0.121944 1136.69 893.912 907.802 46.4917 178.529 -13.0648 -785.664 397.966
2434 2 -25.1576 -66.7235 0.261729 24.708 -585.573 -352.959 -86.7102 -480.199 -91.8038 -242.97 1012.03
9889 1 -10.543 -63.7638 -20.1131 804.528 883.791 970.609 -193.665 206.87 321.315 -772.218 755.868
9928 1 -10.6058 -66.5771 1.60848 1491.01 891.855 1290.3 -101.067 71.0882 -229.752 -897.66 695.107
4948 1 -18.918 -66.2545 6.4743 1158.84 785.55 700.185 453.824 375.359 -389.216 -841.328 1293.65
47 2 -24.789 -62.4482 0.54977 -574.615 -440.758 -627.161 -129.27 111.096 -62.194 -247.509 355.634
4930 2 -19.5159 -67.0355 1.73121 -42.162 -349.085 -571.599 -46.6617 333.598 68.0353 -238.506 752.522
4925 2 -22.3585 -66.4398 0.704982 143.149 -445.962 -644.08 -186.794 256.443 170.607 -254.194 944.617
4943 2 -21.558 -66.3782 3.16712 -630.82 -592.494 -182.344 54.1704 -31.7339 -30.8473 -231.243 447.315
4937 2 -20.2552 -66.1914 5.48331 -389.472 -482.606 -578.118 -79.2113 133.627 -98.6278 -235.733 358.142
4936 1 -20.9787 -66.2501 1.63392 1262.51 775.458 1270.84 -136.074 -139.005 -253.698 -825.545 740.239
2446 2 -22.9805 -66.0903 5.36722 -172.359 -560.64 -449.343 86.2844 -145.16 27.3671 -230.626 455.775
2442 2 -20.8682 -62.549 2.35998 -675.332 -612.428 -452.619 -45.4008 -160.615 -44.7785 -237.232 359.359
2438 1 -21.5245 -65.7368 4.67002 1193.47 948.019 826.009 129.962 5.53146 103.448 -854.299 433.531
2445 2 -23.2946 -63.1135 2.61809 -688.288 -497.498 -706.891 -86.9462 98.6173 129.936 -253.993 377.891
4933 1 -19.919 -63.2803 1.30252 1103.65 825.984 985.429 7.14893 74.1124 364.558 -832.768 688.175
2452 1 -24.4091 -65.5357 5.86255 1022.93 1355.98 749.403 -45.4343 -11.3265 -137.162 -883.239 582.975
2443 2 -24.7179 -64.9001 1.35801 6.37227 -520.814 -588.778 -17.9114 -416.575 91.2363 -284.138 930.006
4939 2 -20.5379 -64.7664 1.27533 -503.719 -525.591 -648.685 189.515 -22.5075 -1.41843 -253.604 357.206
2441 2 -24.7223 -64.1539 5.22956 -356.458 -564.922 -228.069 -29.1669 10.0692 161.502 -165.942 409.647
2444 2 -21.5502 -64.2087 4.2594 -657.752 -774.441 -476.962 -55.0488 0.0135001 -123.228 -244.139 349.347
2437 1 -24.6213 -63.3203 1.87123 703.829 623.891 1225.61 -73.9574 -34.132 -118.878 -817.583 618.595
2439 1 -21.9846 -62.8893 3.49819 1074.9 796.03 976.155 150.741 -85.8432 -287.738 -850.861 631.377
4941 2 -18.4405 -63.0007 1.86779 -566.129 -759.856 -626.088 292.186 30.6582 79.7254 -237.841 554.54
4836 2 -17.9601 -65.1043 2.77824 -578.208 -633.086 -825.939 140.064 41.2559 254.081 -236.162 555.354
2542 2 -18.9996 -61.8907 6.83218 -597.677 -725.247 -661.46 12.1081 64.3817 19.3158 -233.884 161.863
9917 2 -11.7722 -66.9149 0.524085 1.78436 -574.757 -443.447 -81.7956 361.85 -49.1748 -205.893 833.108
7430 1 -11.3807 -66.1314 4.58706 947.123 1009.09 1262.68 -65.9526 -59.8358 249.941 -875.022 543.199
7434 2 -11.2434 -62.771 2.45864 -452.437 -602.945 -455.828 8.84612 -190.997 -14.4192 -229.623 363.939
5033 2 -16.4741 -61.7288 6.14445 -456.759 -695.428 -518.986 219.733 146.733 88.9394 -222.659 528.35
7344 2 -11.193 -66.7577 3.12326 -742.485 -539.896 -331.813 93.5901 -60.9807 -50.4958 -215.132 414.221
7432 1 -15.9543 -65.9755 0.0379277 1163.75 1088.3 1095.82 -214.241 207.573 7.09169 -881.842 521.814
7437 2 -13.599 -63.6994 2.76871 -510.905 -476.971 -619.44 61.004 232.547 -86.366 -239.176 460.858
4938 2 -16.1303 -63.2093 3.0445 -329.572 -471.178 -679.647 101.076 -229.313 -53.9241 -224.116 538.662
5039 2 -14.9052 -62.3456 0.875441 -545.924 -722.992 -514.301 25.3336 37.2545 -223.909 -234.282 440.962
7435 2 -15.511 -64.7608 1.02724 -581.407 -733.841 -391.073 109.992 148.325 201.883 -218.807 559.501
4940 2 -17.5374 -67.3809 3.65513 -542.848 -507.457 -72.8832 -97.1509 326.905 -195.564 -231.499 818.009
4922 1 -18.0471 -66.5964 2.27112 1175.03 819.794 1308.85 140.633 -34.9454 41.4632 -855.373 509.699
7431 1 -12.314 -63.2866 3.58294 918.747 881.717 1222.65 -70.0696 -106.507 -119.877 -866.975 443.684
7438 2 -12.7843 -66.5792 5.31163 25.0298 -447.96 -610.302 92.9642 -243.269 -113.002 -236.113 754.079
7421 2 -16.9749 -66.7034 1.04083 -589.019 -669.037 -297.157 -81.0813 -316.785 -113.458 -220.73 688.724
4934 1 -17.0123 -67.0947 5.15293 855.681 1026.64 1235.12 280.001 -9.51924 37.518 -837.743 589.938
7433 2 -15.4581 -67.0163 5.38358 -306.638 -468.644 -741.344 209.18 100.562 -130.171 -247.009 597.689
7440 2 -12.6836 -62.2999 4.75325 -625.62 -489.715 -286.73 39.8035 17.9321 185.78 -228.642 443.305
7429 1 -14.9513 -63.5297 1.94409 811.816 976.158 1433.04 -227.718 -53.9848 240.155 -867.437 805.089
4994 1 -12.5614 -61.9324 -15.9178 880.993 814.57 1333.66 -125.048 -47.0848 33.1742 -794.657 544.293
7447 2 -14.4887 -64.968 6.71542 -528.464 -723.879 -339.901 52.2943 -217.321 464.91 -205.798 953.364
4951 2 -19.5131 -65.6032 7.71127 -736.798 -308.093 -737.664 -228.778 -294.114 -11.9984 -245.683 775.318
2456 2 -22.0322 -65.2782 12.3053 -741.18 -517.218 25.0321 60.3929 181.469 -183.441 -227.341 822.39
2457 2 -23.3756 -64.913 9.85039 -253.883 -619.633 -163.191 14.9748 196.59 -17.5083 -230.257 541.022
2454 2 -20.7055 -64.9516 10.1352 -373.008 -656.99 -408.247 32.1786 -287.96 168.086 -231.265 639.146
2451 1 -22.0849 -64.5718 10.837 1319.38 1237.91 866.559 -59.8623 368.356 -54.8622 -872.353 775.649
2449 1 -24.5681 -64.5464 8.79793 1058.35 1039.13 806.589 11.9713 222.656 -108.368 -870.669 493.253
4945 1 -19.7537 -64.5374 8.89659 1379.91 1161.43 908.541 -163.863 161.019 -132.59 -847.914 614.828
2460 2 -22.279 -62.9973 11.2392 -592.672 -156.932 -474.808 -178.032 -190.145 249.337 -226.163 736.52
59 2 -24.4086 -63.0195 8.31161 -598.06 -349.725 -505.133 -86.8496 -46.2528 -182.589 -235.579 419.871
2555 2 -20.556 -63.0748 8.50321 -574.375 96.9792 -501.404 -160.492 29.4895 45.1634 -232.686 702.177
5050 2 -13.4823 -61.8533 13.2762 -360.341 -763.077 -242.697 -42.684 -167.242 148.398 -224.392 615.515
2455 2 -24.568 -65.3854 7.46355 -595.536 -738.763 -360.769 -5.42729 -129.166 131.351 -227.105 459.515
7477 1 -13.4758 -63.5555 31.6904 495.859 951.506 1220.68 -196.356 -159.115 71.7973 -712.596 780.899
2404 1 -23.5297 -65.7645 34.7244 982.839 731.984 1163.68 -8.62215 34.6792 81.8598 -780.745 406.113
7485 2 -12.3163 -64.7074 31.9369 237.719 -595.851 -568.665 -252.668 254.135 -293.16 -279.737 1147.18
4953 2 -18.2048 -64.1151 9.17196 -469.712 -628.671 -712.861 171.866 -115.193 -134.528 -226.953 477.969
7451 2 -14.1721 -66.7684 7.78747 -538.701 -685.796 -136.853 63.8167 -107.711 378.059 -195.137 847.37
7448 2 -12.4125 -65.5113 11.3492 -485.015 -148.678 -308.093 20.6156 101.875 66.669 -120.203 361.474
7441 1 -14.4452 -65.2858 8.33519 1080.34 1004.42 972.72 -23.5327 -46.1832 -612.678 -882.948 1069.28
7449 2 -13.2822 -64.5747 9.05753 -620.42 -612.141 -610.61 67.4603 83.4237 172.057 -212.851 351.32
4950 2 -15.8251 -64.9939 9.14012 -532.376 -552.158 -430.535 -161.039 -153.569 322.729 -216.746 688.325
7443 1 -12.1787 -64.4139 10.2661 996.58 1461.57 1149.35 -169.028 -40.8369 -428.039 -934.503 899.381
4956 2 -16.8927 -62.8888 10.8246 -751.863 -448.454 -567.813 -97.4978 -18.4578 121.66 -222.349 379.516
4947 1 -16.7205 -63.6868 9.45051 938.763 1051.33 977.53 -55.0747 -134.354 -198.192 -880.653 436.926
7452 2 -12.3045 -62.876 10.9268 -511.23 -450.169 -121.483 8.06362 -54.744 407.399 -212.253 799.338
5051 2 -15.9301 -62.6715 8.46718 -400.422 -707.178 -609.409 189.069 -98.5026 -17.9265 -227.37 459.326
7479 1 -11.0819 -64.0355 32.6626 242.815 791.681 1309.77 42.8116 -129.97 197.753 -723.195 1013.67
2578 2 -18.1962 -61.9546 28.4736 35.8675 -735.156 -447.486 162.5 -49.2993 -226.795 -266.663 834.416
4992 2 -16.848 -62.3455 33.2678 -361.749 -665.859 -764.193 -1.44477 -17.0177 27.7307 -275.445 367.748
4986 2 -14.9099 -63.8267 32.4146 411.328 -521.736 -847.861 273.317 -21.5526 98.5439 -291.763 1239.31
7446 2 -10.7459 -64.5676 9.56619 -488.914 -661.592 -561.248 -37.8853 -84.9992 205.514 -209.372 418.626
2450 1 -22.08 -65.5072 13.9271 911.808 1071.2 1383.89 -91.2414 88.8543 -234.724 -858.888 622.065
2467 2 -23.285 -64.4703 14.396 -326.572 -1062.31 -640.616 32.8046 -101.41 132.927 -206.694 704.253
2458 2 -23.1762 -66.5819 14.4649 -21.4412 -833.152 -595.899 0.456675 -313.757 43.1862 -207.198 907.473
2464 1 -24.4266 -65.5632 14.7224 806.171 939.842 994.293 -147.283 88.5264 -295.651 -849.069 615.571
2468 2 -22.4705 -65.4646 17.522 -487.647 -543.159 -151.04 -12.1266 113.083 78.4353 -141.177 438.557
2567 2 -19.7355 -62.9343 14.5478 -706.58 -767.86 -520.994 21.8476 93.5196 -21.2178 -224.982 280.34
4949 2 -20.7382 -65.2223 14.7604 -408.45 -415.008 -339.986 174.192 438.679 338.634 -224.165 1008.73
2471 2 -25.1879 -64.9911 15.9973 -772.732 -225.644 -620.977 -115.424 -119.01 437.802 -228.666 946.986
4957 1 -19.9224 -64.0705 15.6308 1313.99 1152.61 985.29 -150.013 -270.636 112.658 -885.665 637.463
2466 2 -20.9866 -63.509 16.8016 -528.267 -686.052 -270.931 -90.1591 -122.863 144.515 -214.577 513.855
2463 1 -22.215 -63.9778 17.7003 1146.31 1412.51 649.629 1.32773 16.2219 -280.112 -909.11 828.225
2469 2 -23.6342 -63.2038 17.1629 -315.874 -721.491 -504.057 -86.3142 135.907 37.4386 -218.967 453.404
2472 2 -22.1478 -63.2235 19.1324 -699.596 -489.123 -410.552 -42.0708 -64.3609 270.957 -221.943 552.268
2461 1 -25.0632 -63.4533 16.5323 1210.37 1187.82 922.832 36.5123 -14.4772 -288.037 -854.083 574.654
62 1 -22.6767 -61.9089 19.886 1170.03 1425.85 738.163 0.158787 -187.296 -12.9904 -846.522 684.236
71 2 -25.3815 -62.565 15.2271 -689.235 -675.559 -33.4512 125.614 -28.4009 -103.599 -236.325 709.384
4965 2 -18.5593 -64.3672 16.4158 -391.676 -558.129 -182.922 79.0107 384.159 92.1958 -217.07 770.062
7458 2 -11.0659 -63.4913 16.3503 -134.434 -459.52 -787.807 -77.3561 -30.7443 -82.7499 -251.689 601.253
4968 2 -18.0857 -62.9387 18.7432 -644.262 -745.902 -267.418 -1.72516 -38.6896 230.744 -218.212 595.712
2558 1 -17.9465 -62.0313 19.9924 1070 1270.19 818.638 -25.8581 3.75695 20.9577 -867.37 396.161
4964 2 -17.5287 -65.4622 18.7542 -426.851 -306.968 -253.031 -22.287 71.5102 63.3248 -133.111 229.365
4959 1 -17.6418 -64.2664 17.8136 1174.96 1325.07 1202.78 -48.6015 -24.581 -198.394 -912.924 382.242
7461 2 -13.5766 -64.5853 16.7396 91.1496 -673.297 -483.431 -137.302 238.646 -122.262 -200.771 864.603
7460 2 -12.1 -63.1904 18.6168 -666.866 -414.097 -156.521 -53.3328 -55.8862 251.199 -223.563 634.468
7455 1 -12.4657 -63.4863 17.061 596.339 1300.13 1029.72 14.8931 3.02825 47.9855 -848.787 621.07
7453 1 -14.9133 -63.4633 16.4234 688.282 1419.6 968.78 -265.882 -13.6426 21.2918 -852.829 788.903
4962 2 -16.1514 -63.732 17.2578 -414.185 -562.365 -669.926 175.754 -4.68356 67.9683 -223.453 395.043
7464 2 -13.7207 -62.4222 16.8217 -4.40318 -1003.01 -589.858 6.05841 -65.7752 6.66446 -220.347 876.67
5063 2 -15.1921 -63.0097 14.9138 -689.51 -618.794 -321.642 -55.6445 70.2823 -243.906 -225.557 562.931
5054 1 -12.3651 -61.9234 19.6899 1008 1494.17 645.242 16.7661 38.0768 121.514 -854.528 770.589
5062 2 -13.7563 -61.9831 20.4024 -352.917 -729.343 -460.423 -2.36602 -134.114 -94.4868 -244.106 439.938
5057 2 -16.4639 -62.169 20.6972 -73.7409 -732.627 -377.089 87.2172 159.667 3.15496 -236.509 652.388
7488 2 -12.2483 -62.6447 32.5535 144.289 -581.102 -722.577 -100.742 160.161 -153.226 -324.172 909.213
4988 2 -16.1346 -64.2855 34.581 -242.993 -664.982 -201.885 47.7627 420.14 62.7147 -274.262 863.312
70 2 -24.0942 -62.2399 20.7205 -273.712 -656.018 -152.898 141.261 -178.917 -215.875 -248.343 708.975
2566 2 -19.0775 -62.1175 21.2118 -297.058 -737.71 -59.9804 30.7753 -274.945 -96.9287 -242.051 782.726
2478 2 -21.9483 -63.8654 25.5564 -22.4232 -639.347 -196.821 -84.317 -359.655 -97.3906 -281.301 860.962
2475 1 -23.2929 -63.7126 26.4052 500.924 860.602 1082.78 -15.4711 -403.334 11.4505 -734.895 864.751
4969 1 -20.6338 -63.162 24.7924 848.51 967.544 878.175 159.125 40.4067 112.576 -775.823 361.107
2481 2 -24.5343 -63.7866 25.5065 -409.896 -486.916 -614.77 -37.5283 340.92 -48.3137 -283.565 626.125
2579 2 -20.7819 -62.7736 23.252 -549.558 -545.347 -122.023 62.1638 -103.236 -289.11 -260.947 689.437
76 1 -25.2677 -62.0803 21.7754 869.461 1377.1 694.687 -25.7135 -317.827 45.587 -808.363 829.595
4977 2 -19.0913 -63.6262 24.8905 194.049 -410.786 -706.059 -27.7936 -210.588 -60.8339 -281.209 882.08
82 2 -23.284 -62.0155 26.9895 310.316 -293.674 -779.395 -100.404 -153.844 391.947 -315.695 1206.74
83 2 -25.433 -63.2046 23.0528 -403.847 -430.042 368.018 93.2788 -42.8793 -436.381 -263.02 1104.35
2484 2 -20.8846 -61.8478 25.7157 -447.341 -708.581 -385.819 -197.118 -89.0414 68.4937 -276.692 492.472
5087 2 -13.953 -62.6403 30.4831 -299.658 -351.468 -444.393 -119.644 317.397 -247.635 -294.687 738.424
7553 2 -11.1477 -61.9851 20.7456 -447.365 -665.53 -450.138 -38.5817 95.873 -106.549 -241.295 336.3
5068 1 -15.0223 -62.0098 21.408 1012.09 1246.15 805.016 57.7655 170.207 194.891 -844.894 597.493
4974 2 -16.4304 -64.6266 24.3657 76.5677 -965.232 -577.272 45.0001 -340.277 -89.4993 -242.237 1099.62
7472 2 -12.9937 -64.3295 27.2792 -311.248 -325.896 -321.172 -63.6683 -39.6969 220.631 -169.536 403.845
7473 2 -14.0178 -63.6241 24.9593 -8.28844 -434.29 -650.693 -87.1154 153.081 87.5233 -254.785 660.715
7467 1 -12.6991 -63.7477 25.9126 798.43 954.665 1158 -4.05831 126.413 -181.35 -846.259 494.141
7476 2 -12.0858 -62.256 26.2814 -360.91 -632.387 -519.047 19.2606 -16.4282 275.023 -245.402 533.49
7465 1 -15.2715 -63.5628 23.9597 474.679 1186.01 948.129 -77.5514 420.016 154.534 -810.1 1006.13
4971 1 -17.5014 -63.6749 25.0286 356.2 1145.99 1210.85 109.144 314.388 -29.6117 -780.285 1007.02
4976 2 -17.1622 -63.2466 26.5654 -522.22 -395.127 -533.57 106.808 111.653 199.081 -255.306 456.34
5075 2 -14.8246 -63.1668 22.5311 -601.609 -534.566 -535.709 33.0799 -25.8919 -276.155 -246.343 488.363
4980 2 -16.4825 -62.4828 24.3261 206.564 -787.832 -670.015 112.018 -182.403 -77.6442 -229.72 1020.34
7470 2 -11.3924 -64.3668 25.0548 92.9138 -397.965 -565.156 -54.0566 -312.417 137.579 -265.124 842.229
2570 1 -16.8908 -61.9375 27.4513 694.289 1353.62 795.421 -251.89 -165.841 19.4571 -807.629 807.624
2480 2 -23.6135 -64.245 27.9137 -288.86 -586.424 345.217 -43.4124 -168.038 -88.0446 -285.183 890.447
29946 2 -25.3061 -63.8487 30.2374 -390.33 -760.072 -448.607 -254.184 -185.604 97.5749 -265.875 666.555
4981 1 -19.145 -64.0722 31.4934 599.977 607.465 578.312 25.7203 -149.171 -98.5224 -659.674 313.925
2591 2 -19.4384 -62.9216 30.4889 -420.957 -259.696 -259.917 -214.559 372.398 -162.123 -315.754 811.768
2496 2 -22.094 -62.8004 32.3871 -444.532 -130.829 -556.82 50.4583 66.8404 -26.596 -278.632 411.59
95 2 -23.8052 -62.2228 29.3723 -389.737 -312.182 -429.528 -326.482 457.898 -327.746 -273.824 1132.13
2485 1 -23.8313 -63.8328 29.5576 799.272 1022.33 1008.21 7.49209 -286.423 534.128 -753.404 1071.9
2489 2 -25.0096 -66.1847 34.1403 474.91 -359.613 -692.945 -64.0282 331.275 15.2951 -271.37 1194.96
2492 2 -22.8063 -65.1608 33.4092 -449.003 -299.474 6.83551 64.2114 -222.923 -265.168 -284.246 731.015
2493 2 -22.8868 -64.5131 30.6806 -406.639 -505.007 58.9477 -31.5388 293.231 -312.377 -288.195 908.802
2487 1 -22.1548 -64.3962 32.116 744.487 1021.78 1020.79 -85.0537 -77.7734 137.758 -753.912 416.412
2490 2 -20.5031 -64.7286 31.9202 397.666 -513.78 -469.757 131.94 -91.0883 59.0868 -299.596 938.156
2573 2 -20.8836 -61.9843 28.2663 -127.914 -288.338 -250.381 -120.375 476.728 -303.354 -302.519 1011.16
4983 1 -16.3861 -63.8556 33.0651 468.327 800.778 1065.04 -58.1892 -166.81 -47.4532 -751.237 607.129
5069 2 -15.5317 -62.0928 28.2695 32.9662 -775.214 -169.001 156.643 344.509 -164.218 -256.553 1020.44