ITEM: TIMESTEP
1440000
ITEM: NUMBER OF ATOMS
29952
ITEM: BOX BOUNDS pp pp pp
-2.5615833775063237e+01 3.5601128117061187e+01
-1.0932319733072634e+02 1.1930849166492510e+02
-2.1035324467156940e+01 3.4903177627851115e+01
ITEM: ATOMS id type x y z v_StrAtomXX v_StrAtomYY v_StrAtomZZ v_StrAtomXY v_StrAtomXZ v_StrAtomYZ c_PEAtom v_VMS
4904 2 -18.2843 -68.4477 -16.0571 -144.096 -620.932 -217.274 -312.64 65.7204 24.1734 -317.334 711.179
2400 2 -19.5324 -68.5461 -18.5538 397.635 -435.172 -120.689 -151.881 619.106 -32.7866 -273.539 1323.96
4901 2 -20.855 -68.4082 -15.4147 157.668 -572.549 -434.482 -75.8741 220.384 -142.725 -289.252 821.918
4912 1 -19.4164 -68.2348 -14.7648 368.71 1034.56 1222.85 306.989 161.362 157.785 -729.165 1019.66
2316 2 -21.9631 -68.1977 -17.8417 -612.007 -413.147 -150.46 -13.3138 -160.994 40.9433 -273.891 494.071
2494 2 -22.0668 -68.2077 -20.4676 -11.4512 -497.851 -207.015 -98.9655 560.536 -63.9064 -271.411 1078.86
2410 2 -23.6211 -67.625 -15.7307 230.26 -477.239 -569.477 -165.618 -325.894 -123.621 -276.951 1010.48
2486 1 -21.0748 -67.9888 -19.1489 1357.71 779.628 947.312 47.4112 119.584 -133.388 -762.221 606.947
2402 1 -22.0505 -67.6841 -16.2773 831.488 590.558 1170.38 0.627564 201.23 414.242 -763.891 943.831
2416 1 -25.035 -67.5289 -14.9618 467.692 971.135 1258.09 -45.2211 -158.2 -34.5014 -772.726 751.698
4900 1 -18.054 -68.417 -17.7691 1124.25 727.367 1096.92 148.956 -18.631 346.672 -748.388 758.661
2407 2 -23.7418 -66.2973 -20.4618 -500.452 -628.141 -405.126 8.15234 -10.618 21.423 -273.343 198.69
4896 2 -16.187 -72.1277 -17.9394 -338.975 160.767 -477.637 -18.6661 32.2192 65.7868 -167.39 596.161
7392 2 -11.9406 -71.501 -15.5867 289.896 -612.191 -842.262 66.2437 110.785 82.932 -277.601 1069.98
4982 1 -15.9696 -70.7861 -17.2262 995.642 625.913 1520.53 250.447 9.48383 21.3827 -816.29 892.234
7478 1 -10.5656 -70.633 -15.435 551.676 329.435 2069.99 62.8714 28.0278 175.743 -707.526 1673.02
4812 2 -16.6339 -70.4759 -15.7532 -522.052 -451.601 -824.533 -184.308 -162.471 47.3657 -260.405 552.809
7396 1 -13.1516 -70.5506 -15.7829 336.963 337.196 1998.83 189.692 -134.707 77.2804 -734.466 1715.14
7481 2 -14.3153 -70.5233 -16.873 314.858 -186.052 -700.666 -106.317 406.321 -145.63 -273.797 1168.9
4990 2 -16.8735 -69.5091 -17.8986 95.69 -188.771 -752.839 -443.324 180.459 -96.6467 -264.301 1129.1
7486 2 -11.7659 -69.4122 -16.0643 136.95 -563.316 -1102.9 -114.829 92.9823 -149.157 -301.509 1136.49
4898 1 -17.1523 -69.2536 -14.9706 316.957 705.808 1131.98 495.398 69.5097 13.9521 -738.152 1117.98
7397 2 -15.8268 -68.4154 -14.629 277.236 -596.213 -593.15 164.622 125.234 -134.086 -280.906 970.842
7394 1 -11.7425 -67.8295 -15.8316 764.925 62.864 1347.86 129.912 -63.3773 323.404 -761.345 1272.17
7402 2 -13.0955 -67.6709 -14.9323 30.1694 -572.219 -838.257 5.74592 -74.4005 37.6933 -272.119 784.139
7400 2 -12.1279 -67.0718 -17.1563 -423.64 -584.602 -716.348 -118.528 305.573 -234.33 -268.82 742.614
4903 2 -17.483 -66.958 -18.1016 -416.983 -259.847 -566.502 163.905 -105.283 -241.558 -286.893 599.535
7399 2 -13.8045 -69.8741 -14.405 -458.911 -135.65 -407.224 -291.451 -309.617 399.56 -267.129 1054.43
9893 2 -10.3074 -67.6461 -15.1795 33.0871 -254.231 -540.703 -381.822 181.444 -116.584 -275.398 907.652
7408 1 -14.2699 -68.3373 -14.0542 732.876 844.685 1152.94 105.693 180.492 -139.904 -774.06 576.151
2537 2 -21.2089 -63.1111 6.55271 -509.829 -657.126 -322.45 -107.332 142.993 -5.62324 -229.06 424.74
4985 2 -20.6727 -66.407 -19.2964 -577.754 -154.124 -547.308 82.1001 -67.3664 -25.7756 -280.024 450.911
2408 2 -21.6262 -66.1962 -16.2299 -537.281 -594.855 -605.633 -176.42 -26.896 -99.9905 -278.523 359.983
2401 1 -24.4044 -65.4804 -19.2547 632.67 1030.86 913.097 25.5101 113.774 41.8792 -789.699 414.222
2409 2 -23.3916 -65.3619 -17.983 -458.183 -578.545 -339.97 -91.5868 106.304 -73.3198 -278.337 343.341
2403 1 -22.2646 -64.8931 -16.9505 931.37 447.444 888.87 133.029 185.084 -147.203 -767.278 660.521
4897 1 -20.2422 -64.855 -19.1261 605.432 848.804 973.304 -43.6116 186.495 487.108 -758.837 962.756
4905 2 -18.6765 -64.8442 -18.8403 -365.611 -556.284 -616.312 -31.9019 5.39718 -117.219 -281.813 309.462
2406 2 -21.0944 -64.2741 -17.8883 -324.914 -462.737 -263.069 -59.7819 -251.201 -17.3567 -285.143 481.949
2507 2 -20.4312 -64.0914 -20.549 -565.744 -707.93 -260.351 -30.5882 -124.749 -178.576 -282.976 549.606
11 2 -24.7661 -64.0819 -19.928 -349.093 -475.876 -307.771 64.1864 -55.5759 -262.946 -265.17 502.064
2412 2 -22.8222 -63.9157 -15.8703 -560.904 -271.068 -530.866 34.9356 -87.9447 83.9157 -274.734 352.407
2506 2 -18.4228 -62.9742 -15.4571 -289.719 -426.817 -403.809 -4.0139 -248.87 81.9875 -269.378 471.374
2501 2 -20.9546 -62.6012 -14.6616 -214.96 -516.086 -568.837 14.8216 4.89285 103.686 -263.752 377.263
2 1 -22.4779 -62.4665 -15.201 957.879 805.56 854.195 44.9413 197.096 -55.7346 -799.85 387.398
7 2 -24.0081 -61.6149 -20.4191 -491.642 -419.72 -410.998 5.34415 116.04 115.702 -259.694 294.14
2503 2 -19.8215 -61.7232 -19.857 -611.252 -273.92 -473.142 49.5028 28.8062 27.111 -277.49 313.567
8 2 -22.4687 -61.2553 -16.216 -560.288 -197.964 -616.695 53.4467 -54.3682 5.62615 -271.167 415.247
9 2 -23.0265 -60.0374 -18.465 -307.306 -435.284 -379.37 45.8936 78.2752 183.265 -264.227 371.224
2497 1 -19.4731 -60.4276 -18.9927 965.872 792.494 891.253 57.2339 0.0998405 -115.48 -793.845 269.304
6 2 -20.533 -60.2829 -17.8063 -237.941 -512.268 -499.883 -54.4134 -207.86 25.7456 -267.808 460.976
1 1 -24.204 -60.3027 -19.4783 834.884 769.532 810.736 157.029 -48.4844 76.6171 -822.456 319.238
3 1 -21.9949 -60.0461 -17.1593 1018.59 849.33 1050.79 112.033 190.565 -100.022 -796.741 460.162
2512 1 -19.4504 -62.9279 -14.2041 865.829 581.096 997.141 60.9736 63.6106 -41.8143 -810.625 405.268
107 2 -24.2675 -59.037 -20.4057 -569.043 -634.158 -644.631 -113.755 -59.2095 -71.5013 -242.595 264.021
5127 1 -11.688 -55.2755 2.94684 815.324 1140.88 934.058 -6.264 125.27 147.299 -842.758 440.13
2500 1 -19.8094 -62.7652 -21.0721 689.459 692.126 590.402 -126.791 -2.14063 121.25 -766.616 320.047
2505 2 -17.8978 -60.513 -18.5736 -192.567 -509.455 -549.778 49.1757 24.4725 44.0046 -264.212 360.114
7401 2 -13.7357 -65.9123 -19.1612 -198.966 -565.077 -266.87 5.72066 322.828 -78.292 -274.102 667.03
7395 1 -12.4306 -65.9018 -18.1868 658.405 797.673 1049.07 21.5281 78.325 545.559 -788.314 1015.04
7398 2 -11.2166 -65.9758 -19.2023 -407.552 -660.901 -484.475 -140.509 -179.969 -6.11854 -267.378 455.106
7393 1 -14.8478 -65.3186 -20.1715 588.188 795.362 906.776 -36.2735 151.575 444.311 -769.213 862.279
4899 1 -17.2772 -65.3891 -18.3201 351.116 740.673 1130.34 -65.7882 203.346 250.06 -769.414 883.184
4902 2 -16.1577 -65.0247 -19.3523 -543.885 -481.114 -585.05 70.9837 -35.5831 -175.621 -286.182 345.921
4908 2 -16.9529 -64.6396 -16.8707 -391.739 -25.0499 -230.741 90.5763 81.865 263.62 -271.898 595.441
7404 2 -12.425 -64.6652 -17.0896 -334.699 -287.413 -129.815 67.8339 43.7927 260.434 -268.601 507.505
5003 2 -14.0996 -64.0345 -20.6936 -409.704 -628.009 -786.591 -1.02774 -66.858 28.6949 -273.224 351.152
4997 2 -15.979 -63.271 -14.7803 -422.807 -466.332 -592.603 -46.7014 58.5705 -26.3136 -271.322 205.54
5002 2 -13.3649 -63.2579 -14.9878 -394.886 -422.61 -432.997 -60.5463 -91.0615 96.0831 -268.735 254.43
7493 2 -10.8019 -63.6145 -15.2035 -99.0983 -499.791 -444.613 201.426 223.404 138.306 -257.343 685.8
4994 1 -12.1569 -63.4491 -15.9996 668.826 788.357 1057.1 -32.5555 65.1454 158.502 -808.178 458.166
2498 1 -16.9339 -63.2093 -16.0304 786.858 977.389 942.239 41.6883 -124.512 -21.24 -784.028 289.685
2504 2 -16.4379 -62.0008 -17.0354 -413.006 -226.368 -437.498 124.422 -96.4655 -120.371 -273.034 397.28
5000 2 -11.9916 -62.0164 -16.6838 -531.997 -82.8614 -688.32 136.763 -19.2393 -13.7034 -258.957 595.11
4999 2 -13.4467 -61.5055 -20.1266 -528.157 -394.403 -509.382 22.5174 -87.7644 82.6547 -270.391 246.69
2499 1 -16.5212 -60.5813 -17.7533 648.859 621.732 929.939 -100.369 152.299 -96.1543 -802.008 463.584
2502 2 -15.2752 -60.3383 -18.7105 -609.617 -465.91 -685.918 38.462 -11.4153 -4.03049 -269.365 205.709
4995 1 -11.6921 -60.4377 -17.0203 1064.22 914.811 1020.55 -62.0345 135.799 -81.9258 -798.082 323.59
4993 1 -13.8558 -60.1668 -19.3201 711.559 688.915 847.898 -158.371 29.0892 -100.154 -798.066 360.642
5001 2 -12.748 -59.9971 -18.2051 -209.401 -512.824 -509.7 -29.3477 125.634 -91.9319 -268.149 407.943
2508 2 -16.5415 -59.4489 -16.6657 -558.904 -574.169 -677.87 10.2761 -50.2377 -5.57878 -265.421 143.358
5004 2 -11.9767 -59.5408 -15.7063 -575.763 -288.887 -326.127 -82.679 -102.468 210.52 -260.528 507.902
2603 2 -19.5129 -58.9905 -19.777 -673.78 -207.532 -612.139 93.2714 -63.1023 26.659 -266.966 482.311
12 2 -21.8968 -58.6756 -16.2806 -572.045 -251.682 -471.191 40.4872 10.7932 207.311 -260.462 463.352
2597 2 -20.6764 -57.8908 -14.1912 -637.46 -402.805 -653.238 -143.974 20.619 61.1756 -258.558 365.654
98 1 -22.0634 -57.8283 -14.9372 817.551 620.35 956.96 -32.5409 -5.01845 -198.781 -818.601 455.64
2596 1 -19.694 -57.6076 -20.4557 1141.19 614.525 971.99 44.995 37.9204 71.5442 -802.901 492.582
103 2 -24.4199 -56.5644 -20.1305 -495.387 -585.932 -456.073 7.25741 122.708 133.389 -244.93 334.681
104 2 -22.5581 -56.3783 -15.4221 -553.919 -442.296 -581.721 -55.4707 155.732 -27.5942 -257.577 317.189
2599 2 -20.1225 -56.4409 -19.3845 -661.699 -322.391 -537.099 -109.273 -131.816 46.7225 -259.866 427.639
105 2 -23.2814 -55.5529 -17.8946 -298.815 -501.477 -224.394 46.115 171.981 88.6612 -253.417 424.72
2601 2 -18.2805 -55.6758 -17.8159 -65.2343 -473.037 -619.764 92.7681 -30.6587 102.531 -253.311 554.836
2593 1 -19.8085 -55.4145 -18.2715 924.278 589.763 818.223 -11.3212 162.84 -100.36 -823.777 444.772
97 1 -24.5494 -55.5329 -18.8536 980.628 1078.34 967.68 39.4381 -40.3589 1.72511 -832.985 143.324
102 2 -20.8482 -55.4569 -17.0511 -600.595 -592.907 -574.922 -50.3344 -105.622 113.269 -252.81 282.983
99 1 -22.3239 -55.2888 -16.5296 884.609 632.303 1109.68 33.2221 156.589 21.5729 -819.443 499.371
203 2 -24.6667 -54.0409 -19.49 -549.311 -243.477 -573.978 58.7614 -52.9305 -143.825 -245.772 427.209
2699 2 -19.8912 -53.9303 -18.806 -602.545 -612.477 -670.416 6.49391 -10.64 103.904 -256.628 192.056
108 2 -22.5426 -53.8064 -16.0037 -563.664 -273.627 -558.807 32.5058 8.69471 102.682 -256.248 343.168
2704 1 -19.1808 -52.8339 -14.492 832.803 930.876 814.172 -33.892 272.855 -147.103 -817.07 550.913
2692 1 -19.7465 -52.8323 -19.9 1281.24 616.519 966.144 -132.63 22.8765 84.7691 -819.449 638.425
2693 2 -20.6822 -52.3736 -15.0308 -482.831 -440 -515.172 -187.553 42.9986 -30.8483 -257.582 343.796
194 1 -22.165 -52.3114 -15.4841 799.071 800.952 1049.4 26.1976 -66.8632 57.7195 -820.374 296.079
2698 2 -18.1686 -52.7774 -15.7034 -205.517 -565.788 -540.663 70.0736 -161.872 -36.3942 -255.705 467.64
202 2 -23.2316 -52.052 -14.2595 -296.164 -526.248 -400.997 32.3189 -158.615 -72.3906 -255.305 366.25
2782 2 -18.2122 -53.0139 -20.5959 -71.6006 -439.091 -478.015 -56.5474 -129.416 87.1003 -259.204 483.183
196 1 -24.4482 -52.9023 -20.6019 892.003 673.018 1129.31 55.241 -103.136 -53.598 -841.866 453.784
2602 2 -18.1685 -58.4718 -14.766 -149.647 -482.128 -342.656 2.12155 -278.548 62.5999 -258.04 572.854
5099 2 -13.8339 -58.9637 -20.4031 -528.499 -337.354 -466.914 43.3381 -29.9758 -61.8774 -267.715 219.942
4998 2 -10.1621 -60.2211 -17.5198 -227.934 -400.758 -350.22 73.882 -140.098 -35.6686 -262.643 320.566
5093 2 -15.5365 -58.4802 -14.4789 -362.98 -483.92 -518.8 15.9079 80.8253 31.4313 -264.415 208.285
2594 1 -16.7239 -58.3549 -15.56 1124.18 837.926 893.608 -7.80052 -31.2334 -328.663 -809.607 629.499
5090 1 -11.9743 -58.2371 -14.7422 672.243 962.237 955.112 -87.8338 4.75539 -114.618 -817.912 380.401
2600 2 -16.6237 -56.9039 -16.3644 -577.164 -86.0663 -344.877 112.145 -120.427 -250.877 -253.87 671.65
5096 2 -12.2129 -56.89 -15.6553 -635.719 -351.049 -611.808 64.5999 8.32483 55.0926 -257.852 310.861
5095 2 -13.7696 -56.3639 -20.3441 -640.724 -426.358 -648.575 -16.3217 54.9693 59.6132 -257.75 261.195
2598 2 -15.6638 -55.9361 -18.6823 -155.731 -336.067 -469.061 75.9334 -198.098 -3.36134 -260.528 457.441
2595 1 -16.6705 -55.6846 -17.4327 1019.41 757.341 1247.74 27.0068 81.8616 -46.1751 -812.375 457.538
5097 2 -13.2207 -55.8706 -17.8521 -465.743 -519.85 -661.282 27.0256 3.31134 -16.8969 -261.309 183.476
5091 1 -12.1686 -55.7017 -16.632 995.757 484.574 826.43 -174.126 22.8004 84.7065 -813.099 563.443
5094 2 -10.7052 -55.6364 -17.2986 -438.839 -415.03 -576.87 23.7608 -96.2541 33.6748 -263.568 236.212
5089 1 -14.1147 -55.4941 -19.0689 935.667 710.52 744.361 87.8084 -96.2448 -45.1767 -808.064 318.214
2604 2 -16.2674 -54.2835 -16.7461 -505.022 -168.867 -447.818 -39.2067 -35.4963 271.434 -261.393 571.37
5100 2 -12.5652 -54.3082 -15.9721 -489.365 -356.164 -660.352 8.14621 -50.4509 28.1918 -261.05 282.796
5195 2 -13.9791 -53.9843 -19.5416 -502.732 -403.23 -472.168 52.8966 7.77796 -201.366 -262.123 371.502
2690 1 -16.596 -52.772 -16.2086 1130.79 828.215 782.827 -83.2698 4.35436 40.176 -814.346 364.756
5189 2 -15.614 -52.4069 -15.0114 -431.845 -582.235 -560.148 63.5477 41.2706 64.3882 -259.06 222.363
5186 1 -12.1454 -52.8459 -15.4796 868.367 708.794 1213.61 62.1971 146.972 -238.895 -813.868 668.858
7685 2 -10.6464 -52.8973 -14.8156 -245.16 -474.631 -528.239 41.4428 133.45 81.9329 -256.036 382.819
5194 2 -13.1641 -52.4819 -14.3045 -449.015 -570.348 -399.882 26.8482 -248.202 25.8621 -254.459 460.521
5188 1 -14.0821 -52.9908 -20.8159 862.204 749.78 1123.38 -27.1345 -20.1529 5.77928 -810.463 337.261
4906 2 -18.4307 -69.3186 -14.0643 50.585 -441.111 -983.112 -189.721 58.5734 -26.4156 -267.669 960.416
4915 2 -19.1725 -66.8976 -13.8524 -404.654 -186.975 19.8507 142.699 9.21882 522.668 -278.812 1008
2422 2 -23.5836 -67.5342 -8.19244 63.5138 -356.682 -709.807 -99.3124 -187.048 -90.7084 -265.309 780.306
2414 1 -21.9884 -67.7234 -8.38551 919.848 1169.95 943.771 -127.437 182.48 225.518 -788.455 598.609
2328 2 -21.748 -67.5272 -9.95719 -659.039 -225.59 -133.732 9.56124 -88.0477 -361.777 -260.183 807.657
2419 2 -24.8883 -66.6684 -13.6475 -433.097 -414.835 -179.457 24.0359 114.448 196.578 -270.197 465.825
4913 2 -21.0371 -68.7204 -7.45595 -68.202 -758.589 -188.844 -27.5254 246.27 -78.0484 -237.802 781.277
2420 2 -21.0712 -66.5711 -7.57254 -106.404 -963.581 -333.69 48.6035 149.276 77.9617 -229.53 826.897
2428 1 -25.007 -67.6874 -7.4395 798.67 1064.13 880.898 28.2055 66.3889 -49.9438 -804.56 280.168
4918 2 -18.5605 -67.6259 -7.51121 -306.165 -433.559 -646.106 25.2605 -169.069 -12.9489 -267.83 420.301
7414 2 -13.4785 -67.7603 -8.05031 32.6005 -386.765 -824.026 -69.6274 -101.141 -79.1278 -258.903 783.871
4910 1 -17.1787 -67.5508 -8.26506 718.789 1163.73 948.532 -46.4966 159.039 179.61 -791.943 572.429
7406 1 -11.8741 -67.6709 -8.20192 682.449 1118.24 1115.05 -142.027 -111.6 163.755 -809.866 605.688
7411 2 -14.3577 -67.4597 -12.7233 -593.07 2.73889 -459.427 -126.161 -61.3433 350.338 -266.87 848.807
7320 2 -11.505 -67.3314 -9.71067 -550.696 -221.249 -397.974 74.4521 -89.3344 -191.013 -249.894 481.222
4824 2 -17.3911 -67.1416 -9.79553 -627.795 -314.996 -332.86 -70.4432 -76.493 -206.107 -259.779 502.449
4916 2 -16.0173 -66.5261 -7.67488 69.5184 -924.948 -490.252 -19.6541 78.1941 -16.4789 -235.212 875.185
9905 2 -10.8042 -68.7266 -7.46798 -13.9946 -686.667 -386.711 1.13878 389.463 -82.1089 -228.412 903.307
7409 2 -16.0024 -68.6702 -7.81238 33.7469 -702.534 -321.612 -108.749 238.726 -85.504 -232.568 796.949
2421 2 -23.203 -66.0258 -11.6459 -352.587 -546.13 -227.338 -66.7107 236.849 3.80386 -256.718 508.994
10 2 -23.5832 -62.1633 -14.0734 -359.833 -639.772 -425.773 -133.58 -227.064 117.756 -255.451 560.409
2418 2 -20.6278 -65.8521 -11.8342 -293.729 -534.487 -235.195 -21.3112 -332.52 1.4605 -257.48 639.188
2415 1 -21.8317 -66.0948 -10.7662 1086.46 1237.35 720.154 117.038 204.46 94.1219 -809.913 636.632
2413 1 -24.5923 -65.6618 -12.3765 851.961 904.915 861.821 53.8804 129.219 -53.0046 -825.918 263.836
4909 1 -19.2623 -65.664 -12.7226 1067.34 771.603 879.06 31.8077 23.8408 109.6 -802.133 328.643
2424 2 -21.7631 -64.9175 -9.64957 -589.43 -365.047 -375.854 73.7693 -35.4769 298.762 -257.177 579.583
2519 2 -19.4424 -64.3548 -13.5531 -621.017 -757.251 -677.917 -60.1432 -21.847 23.6048 -257.139 167.334
23 2 -24.6112 -64.1845 -12.9406 -609.24 -586.046 -722.357 -70.2478 -37.0519 196.9 -249.743 388.83
22 2 -23.554 -64.1797 -7.84467 -168.152 -517.852 -434.352 98.4487 -331.595 -50.2282 -243.019 683.062
14 1 -21.9886 -63.9265 -8.40578 1301.95 1105.27 1145.83 -0.266907 184.758 -265.705 -833.031 588.691
16 1 -24.9335 -62.6961 -13.3815 932.795 683.754 644.618 101.672 195.718 -276.496 -825.187 669.76
20 2 -21.976 -62.4226 -9.12698 -577.206 -150.988 -428.239 -19.7923 -67.2497 -156.171 -253.264 477.778
2515 2 -19.0571 -61.9581 -12.9999 -542.759 -564.971 -145.622 -66.9453 -111.502 249.207 -254.454 635.679
21 2 -23.5534 -61.0416 -10.594 -653.664 -660.357 -573.788 13.6894 -101.733 150.113 -253.916 325.841
18 2 -20.9984 -61.1777 -11.2727 -246.492 -534.249 -479.145 104.526 -261.695 -51.6541 -247.207 562.333
15 1 -22.0776 -61.1652 -10.0733 795.129 904.121 969.179 104.896 21.7542 -87.4273 -833.952 283.836
2517 2 -18.5634 -61.0623 -10.5253 -542.994 -514.36 -555.323 -5.06768 -10.2477 69.6219 -254.611 127.509
2509 1 -19.4518 -60.9123 -11.7815 1058.45 1013.83 894.193 -32.8479 -147.611 -180.817 -818.591 433.971
13 1 -24.971 -60.6711 -11.1543 690.327 953.761 739.271 151.262 345.116 -44.239 -829.762 700.519
24 2 -21.7644 -59.6641 -9.4706 -656.631 -337.017 -678.585 62.2054 -40.3067 -20.0192 -243.861 356.843
2513 2 -21.0175 -63.9487 -7.08437 -440.188 -842.005 9.55821 10.1149 174.348 31.633 -242.199 799.34
19 2 -25.4441 -61.7911 -12.2823 -589.256 -548.496 -528.609 102.788 102.976 10.9063 -255.878 258.326
4917 2 -18.0566 -65.5071 -11.6735 -477.13 -567.725 -270.78 75.5427 79.1591 176.294 -267.374 445.69
2615 2 -19.3214 -59.4682 -12.586 -503.082 -88.9429 -307.074 67.1072 -14.4761 -230.067 -258.484 549.261
119 2 -24.7883 -59.2759 -11.9102 -622.92 -379.578 -613.528 37.9305 -150.825 5.56342 -245.864 360.099
131 2 -24.8058 -59.6944 -7.12558 -696.44 -572.375 -705.17 -32.2083 -28.601 111.236 -247.172 243.388
7405 1 -14.3066 -65.9859 -11.9924 862.988 1079.22 953.924 -45.3604 20.1012 -187.559 -811.513 385.074
7413 2 -12.8444 -65.8532 -11.339 -399.784 -620.022 -451.967 47.6087 123.363 85.9602 -254.929 338.168
7407 1 -11.4373 -65.9038 -10.5806 678.819 1052.44 644.123 3.44341 123.533 -239.059 -818.897 609.118
5008 1 -14.6131 -63.3991 -13.9649 913.463 966.282 1022.93 4.45227 -164.322 -97.7818 -799.146 344.585
4914 2 -15.5196 -65.7737 -10.9628 -101.136 -591.417 -460.759 -107.557 -210.091 117.329 -256.242 633.881
4911 1 -17.0793 -65.6821 -10.4398 1105.14 1142.81 589.931 18.1673 111.103 137.368 -809.986 617.168
5015 2 -14.5281 -64.8009 -13.0969 -487.96 -85.8746 -365.437 -12.8432 60.6315 -245.527 -261.304 565.503
4920 2 -17.2463 -64.5342 -9.31136 -635.605 -337.441 -285.731 59.1968 -146.183 239.088 -257.261 594.225
7416 2 -11.2806 -64.6768 -9.64976 -530.803 -562.16 -696.254 -59.8321 -73.3233 25.2133 -259.758 227.914
5014 2 -13.1317 -63.9041 -7.84101 -240.862 -472.07 -418.445 60.5369 -237.563 158.039 -250.021 546.96
2510 1 -17.1799 -63.6061 -7.98935 1145.71 1013.96 1000.6 -53.5352 97.4078 -202.052 -845.803 422.89
5009 2 -15.7327 -63.6062 -7.30726 -119.477 -759.108 -493.395 69.7538 89.6447 101.479 -233.943 615.932
5006 1 -11.6183 -63.6521 -8.47794 1231.75 893.718 974.434 32.2802 16.7624 -340.446 -833.241 667.214
5012 2 -11.5467 -62.1945 -9.13312 -556.876 -357.81 -449.084 29.6619 -18.5692 -86.4213 -254.773 236.366
5011 2 -14.6738 -62.2196 -12.8126 -562.074 -111.696 -261.548 -36.3435 -94.9328 313.274 -259.869 695.146
2516 2 -17.2886 -62.0713 -8.52696 -670.952 -139.36 -478.446 162.219 -181.373 -98.7339 -242.849 651.302
2514 2 -15.9397 -61.2392 -10.6623 -263.148 -650.645 -369.852 -57.4583 -181.956 148.462 -251.613 543.639
5013 2 -13.2465 -61.1984 -10.8942 -237.331 -482.883 -444.944 0.780323 182.316 30.8058 -257.41 393.682
5010 2 -10.6852 -61.1585 -11.4473 -500.091 -499.695 -410.745 55.8442 -153.618 -24.4989 -254.875 299.832
5005 1 -14.656 -61.0921 -11.644 984.754 1120.73 913.804 -78.0879 25.8424 -50.208 -820.472 247.04
2511 1 -17.1776 -60.9342 -9.67739 1082.16 899.907 950.885 28.0967 -23.704 -200.037 -831.31 388.101
5007 1 -11.7571 -61.0757 -10.2479 987.787 1048.6 1121.32 43.5353 54.5103 -10.8242 -826.784 168.404
5016 2 -11.5584 -59.4837 -9.65684 -520.542 213.137 -511.033 91.9869 29.7215 272.315 -238.526 884.251
5111 2 -14.8802 -59.5271 -12.1665 -553.805 -64.1236 -518.615 -81.8834 58.0396 -12.1129 -254.291 504.435
2520 2 -17.108 -59.3925 -9.23513 -614.081 -251.312 -632.982 -75.3569 -28.3917 15.693 -250.436 398.758
7505 2 -10.4867 -63.7598 -7.2934 -230.537 -773.339 -398.035 -88.0732 235.839 100.098 -239.024 672.28
106 2 -23.1798 -58.4178 -13.9726 -504.436 -560.291 -402.416 61.5532 -188.676 89.3992 -254.591 401.703
2711 2 -19.188 -54.2314 -13.7544 -515.013 -345.813 -437.15 38.5933 -97.7566 -26.2354 -264.518 238.158
112 1 -24.5746 -58.2934 -13.1675 862.536 884.161 975.308 -40.5742 -11.8909 -117.729 -832.408 240.188
2608 1 -19.2387 -58.1899 -13.577 883.362 796.034 1125.31 139.501 38.1937 -225.435 -818.793 550.015
124 1 -24.7299 -58.1735 -7.48922 876.838 825.725 896.884 80.2044 123.252 100.975 -840.261 315.434
110 1 -22.0268 -58.2008 -8.98664 994.287 627.776 1031.04 -36.5515 47.609 -84.2246 -835.017 425.726
2609 2 -21.0972 -57.9168 -7.7307 -478.666 -587.996 -623.14 35.3684 13.8298 -16.7361 -246.739 148.988
118 2 -23.5848 -58.0568 -8.6071 -305.587 -573.927 -599.294 2.83958 -157.981 0.558098 -247.271 392.881
2614 2 -18.4773 -57.7292 -7.77956 -539.602 -573.964 -424.454 22.3304 -96.6545 120.84 -247.125 302.863
116 2 -21.6084 -57.1281 -10.1455 -515.131 -121.364 -397.421 70.4687 -111.795 -144.446 -254.339 487.384
115 2 -24.7014 -56.7415 -12.7707 -536.545 -140.669 -655.717 35.1848 41.5214 128.903 -246.156 526.148
2611 2 -18.8045 -56.7582 -12.9536 -608.306 -231.66 -672.195 -122.33 -170.454 32.2157 -251.285 552.429
111 1 -21.7226 -55.5734 -10.6361 998.739 975.08 982.851 -6.06438 207.067 -119.86 -806.509 415.061
2605 1 -19.2583 -55.2932 -12.5317 1129.71 688.285 855.705 -103.175 75.352 -179.802 -816.216 543.08
114 2 -20.7123 -55.2679 -11.8417 -357.214 -446.316 -345.605 21.0181 -181.255 78.619 -269.033 357.122
109 1 -24.6184 -55.2859 -12.0108 877.671 934.857 1271.92 12.259 88.9049 -132.685 -825.759 461.668
117 2 -23.2532 -55.3145 -11.1447 -168.04 -459.47 -464.139 -88.3747 164.572 27.6904 -260.761 439.655
120 2 -21.4318 -54.5768 -9.36983 -520.347 -553.691 -474.926 10.027 -46.2022 142.079 -258.271 268.242
215 2 -24.667 -54.0128 -13.0139 -485.089 -223.979 -441.265 60.8003 -63.98 -105.232 -258.255 339.482
214 2 -23.4562 -53.3677 -8.0709 -369.903 -552.037 -507.353 0.0919234 -188.278 36.9674 -250.528 370.779
206 1 -21.8723 -53.3897 -8.47676 1067.36 743.7 613.967 -54.4817 8.45626 -306.315 -821.68 673.933
208 1 -24.6063 -52.5185 -13.6044 1029.65 1082.36 836.728 146.804 157.977 -49.6929 -826.396 443.957
2705 2 -21.048 -53.4961 -7.11119 -455.229 -599.94 -484.399 39.81 87.5771 49.3986 -249.681 229.468
2613 2 -18.0864 -54.8911 -11.512 -315.726 -740.524 -496.675 52.7959 82.0365 -14.6594 -248.124 406.849
7697 2 -10.7121 -53.5796 -7.51972 -280.412 -543.541 -249.155 -2.98037 185.351 75.8744 -252.609 445.872
5098 2 -13.0812 -58.289 -13.6226 -235.461 -452.293 -552.225 17.0735 -106.221 84.0003 -260.43 366.827
5104 1 -14.6656 -58.3088 -13.1669 1048.71 804.71 1044 -128.183 -83.5104 -39.8399 -815.933 365.218
7601 2 -10.7237 -57.6923 -7.99022 -421.012 -625.316 -460.198 -29.0527 133.451 -22.987 -241.492 304.655
2606 1 -17.1933 -57.8757 -8.74919 753.673 735.504 1127.65 -95.4059 -126.801 -212.881 -835.844 598.736
5116 1 -14.4214 -57.9338 -7.41468 975.284 1213.04 975.183 2.89096 -107.45 -147.694 -828.868 395.798
5102 1 -11.7798 -57.9288 -9.16965 1148.41 951.544 797.806 -109.434 34.6808 41.5828 -844.951 370.645
5110 2 -13.3424 -57.8187 -8.66077 -57.205 -588.511 -396.174 -4.82939 -209.875 108.078 -240.57 619.956
5105 2 -15.9196 -57.6908 -7.85557 -624.149 -590.876 -551.533 -48.2341 48.3478 -1.07044 -252.847 134.013
5108 2 -11.6371 -56.8935 -10.3173 -643.47 -469.45 -615.958 -4.25758 43.3946 96.4828 -249.815 244.71
5107 2 -15.02 -56.8305 -12.4957 -577.793 -71.6295 -557.886 -31.3264 -12.9088 155.308 -247.674 567.739
2612 2 -17.2256 -56.7589 -9.91911 -564.819 38.8795 -530.442 23.3113 30.4977 -14.1107 -247.164 591.522
5103 1 -11.6139 -55.4676 -11.0684 863.631 1064.63 904.461 6.07412 83.7993 -121.282 -834.128 314.909
5101 1 -14.5967 -55.3323 -12.1204 820.79 752.124 964.489 74.5565 0.0395112 -189.803 -836.403 399.979
5109 2 -13.0637 -55.3191 -11.8034 -429.529 -594.093 -550.316 -21.9968 1.98406 128.896 -250.003 270.369
2607 1 -17.0454 -55.1431 -10.3016 884.338 1170.98 758.698 -21.4008 98.3891 -121.844 -827.929 457.071
2610 2 -15.5768 -55.0218 -10.8672 -437.448 -727.518 -482.343 -51.241 -167.525 16.053 -245.22 407.403
5112 2 -11.5337 -54.2884 -9.96166 -558.338 -538.959 -406.809 3.10935 14.6888 177.095 -246.552 339.358
2616 2 -17.342 -54.1317 -9.12629 -638.169 -292.521 -511.734 -77.7861 -22.6353 108.675 -259.559 383.244
5207 2 -14.8383 -54.1939 -13.1966 -622.327 -149.524 -550.98 49.7168 -21.1499 -20.4927 -251.8 452.677
5206 2 -13.1833 -53.4768 -8.08318 -477.201 -629.164 -574.471 68.3357 -81.1962 34.8666 -247.799 234.963
5198 1 -11.7272 -53.2899 -8.73019 868.395 910.843 826.829 -22.2454 21.1582 -188.941 -838.55 339.437
5200 1 -14.6793 -52.6429 -13.7475 1003.4 1054.72 609.857 -47.4385 -13.3312 -296.365 -816.734 669.692
2702 1 -17.3152 -53.0331 -7.95315 1042.36 980.048 721.454 83.674 4.03031 -87.7601 -822.95 361.973
5201 2 -15.7599 -53.0506 -7.44384 -254.542 -675.707 -577.524 -1.58342 -40.4183 104.791 -246.414 428.393
5106 2 -10.3766 -55.3675 -12.039 -72.5967 -524.137 -443.001 15.4753 -161.865 48.1529 -251.106 510.011
4924 1 -19.9955 -67.6218 -6.84206 794.095 1248.97 426.553 -112.836 32.5572 -156.828 -814.312 790.154
2431 2 -24.6276 -67.5027 -5.91197 -692.938 -319.704 -209.607 21.498 -47.116 310.5 -252.349 699.853
4927 2 -19.8212 -67.3757 -5.34525 -705.437 -437.91 -342.192 68.9233 32.065 293.448 -242.384 618.07
2432 2 -22.9573 -66.7647 -1.23198 -616.371 -328.586 163.13 144.402 -339.965 -253.929 -260.082 1033.85
7420 1 -14.8582 -67.6587 -7.26028 553.036 1241.31 972.17 -91.9152 40.6787 -10.251 -815.299 625.731
7412 2 -11.1225 -66.5845 -7.25409 21.9218 -843.377 -575.161 -56.1624 216.226 -38.4061 -223.715 861.826
7332 2 -12.2781 -69.2402 -2.09805 -543.684 -334.47 -392.571 88.6175 27.0087 -163.205 -121.19 375.028
7418 1 -12.4798 -68.4502 -0.821264 1441.93 1009.16 1302.12 -30.2818 165.174 221.636 -938.535 615.059
7423 2 -14.3817 -67.3119 -5.797 -597.436 -692.608 -636.621 148.845 22.4434 131.99 -239.778 356.515
4928 2 -16.1828 -67.094 -1.32578 -582.102 -700.79 -219.446 -40.691 140.874 -138.281 -226.463 557.241
7424 2 -12.3125 -66.846 -1.24178 -729.558 -573.493 -740.42 46.9387 12.2664 -199.828 -195.805 391.184
7426 2 -14.0609 -68.4184 -0.397246 -237.749 -716.8 -707.381 -121.557 101.116 -69.1919 -206.148 560.742
4929 2 -18.2367 -66.4503 -3.27485 116.824 -537.949 -195.916 -90.0146 279.045 -41.2931 -240.044 764.711
2425 1 -24.799 -66.351 -4.74887 1246.36 1421.54 531.608 23.5512 29.5301 -146.393 -833.798 857.524
2433 2 -23.5854 -66.3147 -3.71864 -616.814 -697.918 -388.061 10.5826 -26.0262 61.2737 -247.451 301.811
2430 2 -20.9863 -66.3287 -3.15878 37.3898 -542.694 -236.271 36.0227 -482.285 -31.2279 -238.032 978.395
4921 1 -19.61 -66.2333 -4.10535 1376.21 1205.41 984.352 23.6574 137.744 -85.3842 -841.711 443.018
2518 2 -18.4097 -63.9308 -6.95718 -421.895 -546.06 -408.301 20.3822 -202.273 126.803 -241.365 435.333
2427 1 -22.5197 -65.9747 -2.62088 1354.31 913.495 724.1 -98.7182 95.099 -4.69952 -841.857 608.369
35 2 -24.7479 -64.8888 -5.54155 -620.86 -53.443 -77.5966 5.33557 -98.1276 -297.796 -244.511 777.084
2531 2 -19.6296 -64.8761 -4.99066 -685.742 -182.85 -337.082 -91.2421 -3.92419 -145.493 -244.676 536.332
2436 2 -22.5499 -64.3988 -2.38151 -761.334 -771.332 -559.2 -11.1716 -130.438 -121.24 -246.629 372.147
28 1 -24.7652 -63.8505 -6.84935 1131.58 1005.24 1167.38 49.8055 217.542 -75.0433 -848.525 433.676
2524 1 -19.7509 -63.692 -6.10737 1274.17 955.143 715.14 -76.357 243.594 -143.004 -849.565 702
26 1 -22.4908 -62.8736 -2.28485 1108.63 430.17 790.066 -81.4959 189.602 235.918 -846.314 800.25
2536 1 -19.8164 -62.7992 -0.687537 1032.43 901.507 709.803 -104.74 101.031 173.022 -861.75 482.01
2530 2 -18.4591 -62.7458 -1.51856 -452.998 -634.883 -537.215 -54.3329 -128.837 45.116 -230.904 299.36
2525 2 -21.1052 -62.4705 -1.55436 -652.675 -717.219 -524.36 120.397 -26.1802 36.6222 -230.657 280.141
31 2 -24.5227 -62.3071 -6.37986 -691.444 -69.7622 -541.052 8.67623 -133.835 18.1905 -239.599 608.74
34 2 -23.6356 -62.374 -1.28157 -642.532 -669.43 -261.159 42.5594 -194.718 -7.33385 -239.246 525.136
2527 2 -19.7127 -62.1702 -5.67778 -618.871 -115.738 -465.677 165.48 -2.29066 25.7436 -249.043 532.624
32 2 -22.4795 -62.037 -3.60402 -780.71 -507.834 -795.907 -4.65672 -202.691 114.365 -239.736 491.317
25 1 -24.6691 -60.7441 -5.96487 1161.84 946.81 693.811 19.2585 195.261 126.918 -845.168 573.122
2521 1 -19.5208 -60.6213 -5.11911 764.04 1144.83 1062.16 -21.5509 20.8914 -38.8216 -844.195 357.184
27 1 -22.3572 -60.4765 -3.81773 1228.04 898.958 952.502 -138.783 187.954 217.106 -839.009 631.436
30 2 -20.8107 -60.2901 -4.23034 -405.684 -687.255 -513.222 -126.124 -163.082 80.9795 -238.395 455.796
33 2 -23.4145 -60.2749 -5.04844 -384.698 -724.811 -184.554 137.162 130.412 145.09 -240.845 628.03
2627 2 -19.5651 -59.4513 -6.27488 -656.688 -405.827 -532.326 -1.1459 67.1744 -80.7273 -240.322 283.357
2543 2 -20.0169 -64.3258 -0.318354 -733.679 -730.658 -613.396 46.3375 -120.37 16.9327 -235.473 254.72
2529 2 -18.2284 -60.4678 -4.26354 -776.022 -521.963 -549.694 81.015 45.9059 93.635 -244.482 332.543
40 1 -24.7971 -62.7711 -0.206579 1207.39 817.207 667.174 48.7037 -36.3969 67.6638 -831.476 508.05