ITEM: TIMESTEP
80000
ITEM: NUMBER OF ATOMS
29952
ITEM: BOX BOUNDS pp pp pp
-2.5615833775063237e+01 3.5601128117061187e+01
-6.4128561133911589e+01 7.4113855468110316e+01
-2.1035324467156940e+01 3.4903177627851115e+01
ITEM: ATOMS id type x y z v_StrAtomXX v_StrAtomYY v_StrAtomZZ v_StrAtomXY v_StrAtomXZ v_StrAtomYZ c_PEAtom v_VMS
1 1 -24.5279 -60.1123 -19.5892 1059.66 965.36 630.531 -96.267 -78.3283 -13.6006 -839.315 446.474
2 1 -22.0225 -62.845 -16.2272 1036.4 994.083 1126.86 50.2898 -154.891 83.589 -827.048 338.118
3 1 -22.0341 -60.1088 -17.8087 786.991 727.417 820.181 -11.2911 -31.2498 -1.21089 -839.571 99.7217
6 2 -20.4929 -60.0528 -18.261 -478.044 -624.982 -576.508 17.5519 10.1509 -45.1588 -246.254 155.464
7 2 -24.726 -61.3979 -20.4991 -637.514 -331.764 -443.461 -22.0897 -80.1502 96.65 -251.438 347.228
8 2 -22.216 -61.4844 -17.0677 -650.88 -368.607 -589.144 10.2348 -33.9388 -13.9757 -249.477 265.365
9 2 -23.04 -60.1324 -19.0378 -504.412 -664.044 -551.174 45.0001 -20.465 14.1846 -247.681 167.748
10 2 -22.9653 -62.8826 -14.8741 -360.999 -507.569 -116.781 -2.36341 -217.127 -2.0329 -252.58 508.313
12 2 -22.2609 -58.813 -16.9593 -654.764 -368.616 -524.815 70.3576 78.0321 28.6078 -250.665 311.698
98 1 -22.1013 -57.4125 -16.1528 1160 934.86 780.53 17.6536 -44.2902 -12.0137 -832.739 341.325
103 2 -24.9519 -56.0558 -20.6149 -612.793 -371.152 -602.273 -53.3121 -2.70317 82.114 -237.81 291.093
104 2 -22.1521 -56.1344 -17.0963 -628.091 -281.062 -474.672 53.8356 -49.5414 -104.88 -248.661 373.876
106 2 -23.2341 -57.3341 -15.013 -322.156 -586.939 -237.865 -16.0561 -181.047 40.8586 -252.164 451.276
107 2 -24.7877 -58.7464 -20.4188 -607.821 -305.946 -510.521 -62.7579 102.199 -43.9101 -244.859 346.637
2497 1 -19.037 -60.1372 -18.8722 894.695 821.37 990.435 113.497 -29.1959 -13.6403 -832.452 251.64
2501 2 -20.4803 -62.7593 -15.7199 -278.872 -592.705 -544.575 41.832 130.917 39.3525 -248.162 383.427
2503 2 -18.9608 -61.456 -19.7573 -663.941 -460.032 -552.051 -51.8228 30.7993 19.9036 -249.267 208.264
2597 2 -20.5947 -57.3627 -15.5281 -275.692 -590.695 -497.569 88.3738 56.3737 136.114 -249.468 408.79
2599 2 -18.648 -56.1786 -19.7547 -616.48 -283.942 -340.562 58.4997 0.00347524 189.29 -251.235 461.214
2603 2 -18.6911 -58.8444 -19.7787 -550.858 -462.232 -545.173 46.2285 -18.7527 -30.5077 -254.138 132.821
2596 1 -18.8944 -57.5549 -20.6299 1128.84 930.794 794.788 -89.074 61.0652 170.268 -832.476 454.552
2608 1 -19.4894 -57.3292 -14.3793 907.553 896.981 1037.18 31.5375 -87.3889 70.2456 -830.453 242.864
2512 1 -19.4874 -62.8428 -14.4723 968.69 1022.83 1044.14 -6.68402 -155.792 79.7465 -826.15 310.749
2500 1 -19.0057 -62.7329 -20.6931 1073.6 854.272 700.769 48.7997 -113.637 -70.4958 -838.589 407.587
11 2 -24.7257 -64.1571 -20.5367 -634.777 131.444 -249.864 36.641 10.8177 -252.67 -247.65 797.64
2507 2 -18.864 -64.0906 -19.873 -569.787 -352.231 -364.236 62.2798 -43.3821 -120.669 -254.753 325.313
2506 2 -17.9246 -62.8699 -14.9448 -265.092 -496.472 -447.553 92.6209 -125.446 -54.5648 -254.711 355.653
2505 2 -17.8809 -60.1381 -17.7164 -439.734 -586.655 -446.324 38.9347 129.892 52.8522 -250.509 290.18
101 2 -25.6938 -57.3658 -14.2606 -438.706 -624.277 -591.94 -7.98285 126.117 -42.5518 -249.288 287.787
2412 2 -22.1729 -64.1808 -17.1638 -559.761 4.4521 -369.612 -34.8091 -26.8441 223.386 -248.665 634.594
2602 2 -17.9708 -57.4022 -14.9992 -200.797 -548.321 -487.023 -105.607 -96.0122 38.4271 -251.628 410.818
2498 1 -16.4398 -62.8347 -15.5363 928.459 762.343 917.081 37.5453 -132.404 -1.0887 -837.784 287.504
2499 1 -16.4067 -60.188 -17.1729 1094.15 960.789 956.412 -41.646 -238.822 39.5616 -828.475 446.535
2502 2 -15.2989 -60.0878 -18.4788 -137.421 -639.205 -143.883 32.2564 -298.901 60.6396 -243.352 728.536
2504 2 -16.1782 -61.6673 -16.5563 -601.306 -298.381 -578.571 44.3916 -23.959 14.4122 -251.7 306.024
2508 2 -16.1741 -58.9623 -16.1678 -558.002 -39.069 -353.491 -33.1891 -7.24144 192.613 -255.642 565.465
2594 1 -16.4419 -57.4916 -15.4574 971.465 1123.41 1027.9 51.5641 -92.2583 -10.6237 -829.642 227.041
2600 2 -16.1613 -56.2315 -16.4755 -529.121 -4.06143 -506.14 -10.3638 29.8779 -162.899 -247.436 588.861
4993 1 -14.3292 -60.1142 -19.7579 1274.93 1100.36 890.49 -83.7946 -8.21272 -13.341 -839.025 364.636
4994 1 -11.8044 -62.6916 -16.1592 1022.1 849.75 947.868 49.0358 1.2818 69.2199 -846.718 209.796
4995 1 -11.7666 -60.1077 -17.9111 827.43 1017.55 1241.16 65.3943 -43.3074 141.182 -842.176 454.878
4999 2 -14.4976 -61.5202 -20.5718 -584.624 -140.695 -361.614 55.648 36.2519 210.784 -248.458 542.52
5000 2 -12.1218 -61.4515 -17.1137 -528.462 -551.641 -477.531 -20.56 12.9246 -166.127 -242.179 298.12
5001 2 -12.7346 -60.0527 -19.2263 -53.4118 -546.147 -259.607 7.45862 308.805 65.9775 -242.08 694.991
5002 2 -12.7652 -62.7625 -14.88 -423.928 -641.151 -472.758 28.9437 -85.6881 -37.9838 -242.67 260.446
5004 2 -11.9926 -58.8355 -16.8734 -549.337 -400.749 -347.11 -102.44 -57.0182 137.771 -246.915 362.082
5090 1 -11.9723 -57.4297 -16.1646 939.436 1011.86 824.293 -73.0769 9.99403 -9.0023 -845.447 208.339
5093 2 -15.3941 -57.2585 -14.242 -398.175 -569.408 -376.625 38.7749 283.737 88.2023 -247.061 550.313
5095 2 -14.4331 -56.1712 -20.6127 -658.08 -231.494 -445.29 -52.5688 -99.2874 134.549 -244.697 478.181
5096 2 -12.189 -56.2042 -17.2077 -529.659 -325.011 -473.8 35.9907 -5.66727 -160.074 -246.625 338.264
5098 2 -12.979 -57.22 -14.9287 -570.031 -609.018 -231.716 -27.0621 -125.507 82.2354 -242.147 445.991
5099 2 -14.6732 -58.8289 -20.6734 -593.133 -234.676 -403.258 -56.1531 92.4255 -148.494 -246.561 444.658
7589 2 -10.4908 -57.3412 -15.5387 -388.462 -712.776 -617.858 -77.9329 41.1432 -140.681 -240.924 407.527
7493 2 -10.2927 -62.6452 -15.6134 -375.133 -492.331 -386.224 -63.5813 195.715 -85.2823 -243.552 401.77
5003 2 -14.6873 -64.1985 -20.6221 -580.049 -146.102 -545.338 -0.120442 4.16541 -165.948 -248.046 507.07
4997 2 -15.3178 -62.7293 -14.3886 -401.019 -655.455 -535.784 -106.106 156.953 -88.1409 -241.281 423.786
2692 1 -19.0102 -52.0577 -20.6291 1046.24 980.742 752.517 52.497 138.978 -74.697 -843.477 392.782
97 1 -24.5941 -54.8109 -19.7074 1085.46 830.937 839.75 25.8255 28.5715 -143.433 -846.98 358.869
99 1 -21.9674 -54.7956 -18.0095 1042.99 869.172 1162.39 80.7242 -26.1774 -28.5621 -833.336 298.789
102 2 -20.4155 -54.7449 -18.5225 -159.217 -511.297 -562.758 -85.7517 -50.2233 -5.48663 -248.988 417.665
105 2 -23.027 -54.9171 -19.2673 -213.446 -503.032 -376.518 6.79472 215.769 41.891 -244.04 456.4
108 2 -22.2855 -53.506 -17.1451 -560.33 -209.951 -428.045 16.821 22.0943 145.353 -252.073 399.513
193 1 -24.6965 -49.5016 -19.7766 1150.39 910.856 880.936 75.8207 -5.24616 -51.6039 -840.967 301.261
194 1 -22.1537 -52.126 -16.2408 1123.96 882.39 716.625 25.5897 113.632 180.016 -831.378 513.612
195 1 -22.1286 -49.5006 -17.91 825.942 1121.77 1082.49 68.0678 66.2813 101.138 -825.398 367.7
198 2 -20.6148 -49.6834 -18.2886 -333.818 -547.057 -544.844 14.9577 -27.5214 -9.18167 -261.826 219.546
199 2 -24.848 -50.8786 -20.6081 -606.815 -548.692 -657.904 23.6291 8.54915 -33.3894 -243.183 119.15
200 2 -22.505 -50.8295 -17.027 -624.132 -264.319 -553.542 1.34381 -1.64762 -36.0723 -253.275 336.105
201 2 -23.2008 -49.4718 -19.1382 -176.404 -583.953 -375.763 -66.625 205.016 15.5136 -248.649 514.514
202 2 -23.085 -52.2508 -14.9807 -453.106 -649.809 -485.534 -13.5714 -42.0165 -11.4053 -248.645 199.008
204 2 -22.254 -48.0496 -17.0958 -591.712 -104.72 -439.081 -20.6592 -40.7499 173.138 -245.295 531.338
299 2 -24.9233 -48.2306 -20.7054 -645.634 -162.857 -344.057 -21.0139 6.3231 -183.226 -247.744 529.706
2593 1 -18.8755 -54.8186 -18.9788 1000.8 926.655 1108.5 154.933 18.9689 -15.8653 -837.272 314.532
2689 1 -19.0652 -49.5578 -18.6891 928.205 1241.84 1189.5 -1.00576 -89.721 -20.2413 -821.155 331.773
2693 2 -20.6205 -52.1038 -15.6295 -370.473 -561.353 -392.656 -67.9674 202.39 -83.0898 -248.864 436.06
2695 2 -18.6673 -50.9185 -19.5787 -489.701 -195.403 -414.351 -26.3098 22.7189 193.629 -249.334 431.527
2699 2 -18.7212 -53.5315 -20.0161 -595.066 -139.944 -484.267 -131.492 -14.3952 -185.826 -237.819 570.151
2795 2 -18.7854 -48.2187 -19.6552 -514.521 -51.1385 -247.612 119.247 -71.4628 -332.525 -250.802 742.955
2704 1 -19.5835 -52.1055 -14.434 981.048 1052.72 999.814 4.15612 -141.197 -59.8317 -831.649 273.396
203 2 -24.8013 -53.4681 -20.5774 -594.192 -505.181 -424.543 -21.6439 29.8084 -122.56 -242.194 265.964
2697 2 -18.0317 -49.4602 -17.4315 -120.167 -551.958 -419.528 18.9066 204.368 7.72354 -247.322 522.828
2788 1 -18.9688 -46.964 -20.6774 1078.55 1149.47 860.12 -78.9577 3.346 44.0285 -833.734 304.603
197 2 -25.604 -52.1794 -14.1617 -568.243 -658.046 -680.346 23.5673 -57.0094 39.3411 -247.359 163.169
27558 2 -25.5157 -54.8439 -18.4224 -256.564 -562.018 -427.901 -72.9232 -157.562 78.9056 -249.68 423.594
27654 2 -25.7762 -49.6188 -18.5683 -299.663 -570.344 -304.174 25.3749 -217.71 -7.77342 -245.313 465.16
290 1 -22.0068 -46.6782 -16.2993 1027.88 773.76 773.582 34.088 -16.8734 62.1641 -842.594 283.823
298 2 -23.0235 -46.6237 -15.0563 -469.069 -594.314 -435.345 -16.8955 -41.5004 37.7214 -251.01 177.029
2789 2 -20.5203 -46.7817 -15.7043 -445.512 -566.999 -572.788 -98.1149 74.4558 -69.2741 -244.43 274.596
2800 1 -19.5035 -46.8152 -14.4747 871.031 719.526 933.436 31.0538 -88.9337 -86.0073 -844.519 291.746
2873 2 -20.507 -46.9593 -21.1949 -303.89 -688.372 -541.123 -40.31 71.2519 -30.0663 -243.719 368.39
2601 2 -17.8041 -54.4933 -17.784 -269.821 -467.788 -361.386 30.348 250.132 42.1381 -246.522 474.59
2698 2 -18.0312 -52.3674 -14.9447 -71.8458 -513.318 -532.933 -60.7669 -116.685 41.8824 -251.07 511.007
2595 1 -16.3141 -54.7529 -17.1637 1055.05 1052.06 831.745 -176.709 50.0945 -121.011 -835.435 440.845
2598 2 -15.3556 -54.8356 -18.4693 -478.613 -690.216 -365.319 7.94483 -84.1417 126.654 -247.489 388.763
2604 2 -16.0164 -53.5377 -16.2143 -573.139 -251.264 -486.718 -74.2509 -137.242 120.028 -251.387 446.678
2690 1 -16.4804 -52.2451 -15.3064 985.684 1110.67 1225.85 23.2707 16.2077 -54.2558 -832.533 233.509
2691 1 -16.4415 -49.5215 -17.0509 1061.77 914.98 953.486 -22.1801 14.7097 27.2069 -842.599 147.386
2694 2 -15.5579 -49.5412 -18.3664 -340.418 -587.306 -396.002 -8.2226 -145.253 -65.765 -248.234 356.08
2696 2 -16.2233 -50.8545 -16.1622 -550.574 -192.754 -367.618 44.3591 -16.7381 -281.761 -244.736 583.913
2700 2 -16.147 -48.2494 -16.1009 -607.147 -392.192 -500.496 4.95 -23.0276 119.592 -243.963 281.471
5089 1 -14.385 -54.8032 -19.7181 874.221 1229.89 818.974 -103.465 -73.4172 -30.6354 -838.061 447.549
5091 1 -11.8523 -54.8762 -18.0536 646.581 1069.72 1083.21 33.6513 -91.0876 36.0521 -841.39 465.964
5097 2 -12.8811 -54.7247 -19.2695 -540.489 -672.806 -591.205 -83.3315 41.1251 -96.1092 -242.522 258.818
5100 2 -12.1323 -53.5693 -17.0969 -509.497 -186.413 -426.778 -99.1533 -82.9313 183.505 -248.053 485.438
5185 1 -14.4566 -49.395 -19.5707 990.305 1121.74 898.906 122.851 -51.8114 -2.79499 -841.857 301.655
5186 1 -12.0242 -52.3059 -16.1078 1132.54 1260.42 873.736 -13.6393 196.067 -13.9138 -839.519 482.592
5187 1 -11.8961 -49.4825 -17.7651 769.987 954.593 1185.55 -51.8059 -43.6449 -114.478 -847.724 427.947
5191 2 -14.6212 -50.7446 -20.4444 -594.996 -157.589 -488.485 15.3694 80.1694 122.032 -243.17 469.836
5192 2 -12.1822 -50.817 -16.8757 -493.689 -1.87091 -351.734 27.8069 -10.4885 -285.723 -242.846 663.162
5193 2 -13.014 -49.2703 -18.9214 -414.181 -579.651 -521.464 -27.588 88.0125 -44.9235 -243.471 229.596
5194 2 -12.9658 -52.332 -14.8507 -583.406 -684.312 -495.523 -22.2349 15.1439 -33.9593 -248.232 180.012
5196 2 -12.0633 -48.1847 -16.823 -530.297 -307.372 -619.745 -19.0699 -23.8406 152.345 -238.381 387.375
5291 2 -14.6452 -48.0009 -20.3947 -533.74 -20.0236 -494.973 82.2031 -153.537 -130.332 -247.372 622.451
5195 2 -14.7375 -53.4146 -20.5863 -616.824 -249.136 -487.304 -55.1369 36.517 -74.5024 -244.261 366.224
5189 2 -15.4421 -52.2421 -14.0146 -298.37 -611.953 -420.514 -19.407 183.003 -7.81997 -239.998 420.399
5190 2 -10.43 -49.5213 -18.3677 -214.243 -487.671 -555.759 59.4994 -126.291 27.5171 -247.256 398.442
7685 2 -10.4514 -52.3212 -15.4907 -68.1637 -640.99 -548.425 -12.4103 185.239 -34.6608 -233.619 625.044
2786 1 -16.4095 -46.867 -15.3364 803.155 1067.52 1036.83 -40.6201 -131.919 -208.138 -837.103 499.842
2615 2 -19.676 -58.6848 -13.5601 -664.386 -256.246 -616.072 -2.15761 26.0919 21.3603 -249.433 390.664
112 1 -24.2067 -57.4142 -13.6906 964.201 1141.05 1039.97 -36.3202 -55.0773 12.999 -823.048 192.826
16 1 -24.0125 -62.8915 -13.6268 1098.14 844.353 895.391 45.667 -33.19 13.0482 -836.669 253.245
13 1 -24.1818 -60.1256 -12.0423 793.202 782.046 953.603 39.3937 -59.0434 44.5005 -838.493 220.674
14 1 -21.5957 -62.7095 -8.23075 773.089 1146.35 1068.93 -99.9576 -240.279 8.00111 -839.879 565.498
15 1 -21.649 -60.1262 -10.3201 1071.08 1151.9 1016.59 58.2848 -87.3469 -173.303 -829.573 370.25
18 2 -20.6958 -60.0749 -11.6416 -217.988 -652.108 -333.027 19.6508 -155.384 -125.22 -251.268 521.905
19 2 -23.8596 -61.5194 -12.79 -598.429 -327.853 -481.123 7.11095 24.8082 130.766 -245.418 329.438
20 2 -21.5078 -61.4958 -9.33232 -496.087 -146.203 -44.9382 31.169 -3.16011 -414.186 -246.344 828.07
21 2 -23.1968 -60.0221 -10.7943 -268.459 -579.86 -583.845 -57.6416 125.226 -3.05889 -247.292 394.041
22 2 -23.0699 -62.7853 -7.6133 -181.831 -526.451 -460.603 -20.7959 -77.9553 37.0372 -250.561 352.208
24 2 -21.2795 -58.8368 -9.44553 -609.575 -294.902 -519.608 -34.9297 79.1441 118.641 -247.37 378.789
110 1 -21.5703 -57.5643 -8.50852 971.176 922.991 1057.91 88.4979 -149.659 -75.9995 -843.969 349.343
115 2 -23.953 -56.1269 -12.7058 -534.383 53.3769 -371.298 44.3147 20.7361 224.868 -256.097 659.607
116 2 -21.2703 -56.1773 -9.28668 -506.189 -291.927 -525.28 12.6196 50.5624 -95.1892 -247.065 292.735
118 2 -23.0644 -57.7064 -7.95509 -108.676 -472.799 -440.577 -14.4823 -194.128 -21.5836 -241.575 486.801
119 2 -23.9242 -58.8712 -12.9613 -558.51 -211.654 -534.601 -68.1316 11.9575 -73.9331 -251.607 378.604
2509 1 -19.545 -60.0707 -12.7656 1204.97 1061.68 714.999 38.7439 -61.7469 53.0671 -834.438 463.447
2513 2 -20.4807 -62.6497 -7.14695 -463.141 -609.112 -608.335 -9.47459 82.2642 -47.9203 -246.458 220.58
2515 2 -19.714 -61.48 -13.5611 -613.131 20.8171 -415.241 -42.4695 13.6982 175.212 -248.447 643.172
2611 2 -19.5798 -56.0131 -13.4295 -524.875 -210.735 -399.301 -15.177 36.4519 183.56 -255.639 425.165
28 1 -24.6835 -62.834 -7.29784 1089.63 841.272 867.528 -23.2056 -91.1254 70.0488 -840.361 311.604
124 1 -24.666 -57.5905 -7.38721 1086.83 872.458 875.786 -40.8371 -212.753 13.8213 -842.279 431.996
2609 2 -20.5557 -57.5549 -7.23529 -358.526 -513.896 -430.319 74.3099 239.104 152.161 -237.196 525.049
23 2 -23.7597 -64.1261 -12.6414 -620.061 -328 -372.938 -64.5068 74.6024 -139.902 -252.204 402.606
2517 2 -18.0073 -60.0796 -12.2031 -98.1633 -586.707 -302.169 34.6717 225.39 -17.3689 -247.464 580.982
2614 2 -18.0903 -57.4247 -7.92353 -522.094 -624.592 -467.869 -61.0705 -38.8242 -28.7694 -248.905 192.868
2518 2 -18.029 -62.6873 -7.95455 -370.826 -638.808 -291.113 -36.0951 -113.507 -60.6868 -251.359 391.33
5104 1 -13.917 -57.2885 -13.5999 979.533 1090.27 871.354 -11.3765 -25.3284 -146.242 -835.551 320.026
5008 1 -13.8666 -62.8214 -13.7049 1006.04 1072.29 854.509 -35.1466 -36.9836 6.11928 -841.983 212.866
2510 1 -16.9714 -62.7941 -9.15154 1150.3 1051.69 757.282 49.0693 -98.4934 -71.6866 -838.274 420.922
2511 1 -16.9269 -60.077 -10.9517 1043.34 959.202 1184.38 -108.122 -83.9963 -49.6043 -831.04 320.09
2514 2 -15.3854 -60.0557 -11.4895 -169.671 -552.458 -519.955 -85.9243 -49.0157 87.3913 -247.378 432.908
2516 2 -17.0238 -61.4545 -10.0886 -625.146 -201.428 -358.019 29.7847 55.084 -226.466 -244.575 550.756
2520 2 -17.3084 -58.8429 -9.97919 -485.456 -379.375 -382.334 -7.13709 -3.76614 165.179 -252.025 304.952
2606 1 -17.0584 -57.4876 -9.15697 995.59 984.152 718.812 85.4038 -40.6662 -50.4777 -839.004 328.722
2612 2 -17.2774 -56.1994 -10.0877 -611.216 -312.052 -435.992 -41.6082 22.3707 -116.339 -246.984 339.236
5005 1 -13.87 -60.1022 -12.0419 861.148 832.53 914.668 49.8286 -155.792 -61.5952 -845.265 311.222
5006 1 -11.2659 -62.6443 -8.37912 933.785 957.704 1099.45 12.3713 -40.2488 10.5454 -825.557 172.358
5007 1 -11.314 -60.0745 -10.1723 1189.1 936.513 822.099 20.2802 -82.3228 41.1306 -826.164 363.906
5009 2 -15.409 -62.8312 -8.64793 -177.998 -651.419 -671.713 -2.95617 13.6103 -17.84 -244.789 485.473
5011 2 -13.6958 -61.4357 -12.8746 -615.938 -253.863 -648.245 14.3897 15.5131 -7.06896 -243.983 381.225
5012 2 -11.0248 -61.3909 -9.35305 -545.976 -325.932 -526.222 -33.2816 11.7939 -22.0372 -259.414 222.845
5013 2 -12.7832 -60.1479 -10.8873 -306.438 -644.625 -496.142 -52.2318 125.168 -55.2309 -246.257 387.995
5014 2 -12.8235 -62.6102 -7.87242 -257.437 -518.267 -537.45 108.479 -25.7277 -21.7584 -254.533 334.832
5016 2 -11.3021 -58.707 -9.33139 -555.066 -328.95 -426.347 -58.1805 -62.3716 112.236 -256.219 313.382
5102 1 -11.4962 -57.4854 -8.30832 792.256 985.394 1036.91 -15.1946 -34.8459 -57.6241 -823.469 253.383
5105 2 -15.5819 -57.4186 -8.58124 -426.445 -674.256 -423.505 1.84639 157.824 74.2719 -246.382 391.704
5107 2 -13.6696 -56.0605 -12.6341 -505.052 -272.344 -444.421 -0.0824281 19.1173 116.091 -256.617 291.971
5108 2 -11.1429 -56.1097 -9.13348 -568.397 -326.621 -367.16 67.9614 -21.2612 -206.302 -249.204 439.535
5110 2 -13.0171 -57.3789 -7.82749 -315.495 -580.188 -486.914 -34.0665 -64.0723 9.50755 -259.559 264.843
5111 2 -13.6687 -58.7598 -12.8941 -535.944 -164.014 -489.234 -72.6161 50.4395 -94.5259 -246.958 416.411
5020 1 -14.3478 -62.7282 -7.48906 738.194 975.286 1001.23 -80.831 -72.487 -26.0931 -837.209 316.927
5116 1 -14.532 -57.3776 -7.34051 825.076 1210.69 921.911 94.8147 -61.3456 -11.9145 -824.025 399.276
7416 2 -11.1416 -64.0699 -9.17042 -496.046 -66.1231 -400.053 90.404 22.4352 245.256 -252.613 599.382
7601 2 -10.4223 -57.6387 -7.12141 -324.481 -601.178 -516.652 81.0697 14.3706 31.5467 -254.904 289.206
5010 2 -10.1641 -60.0414 -11.3869 -199.461 -664.561 -262.613 -42.5868 -239.557 60.6508 -246.887 616.095
5015 2 -13.6544 -64.2023 -12.9119 -541.948 -183.816 -564.214 -14.1827 36.5472 -27.0833 -249.814 378.867
2807 2 -19.8143 -48.0669 -13.5275 -587.847 -547.865 -409.059 59.3791 6.66137 -146.562 -245.381 318.696
114 2 -20.3447 -54.8269 -11.2285 -497.625 -636.713 -505.284 -21.6558 -24.8115 62.5896 -252.515 182.606
117 2 -22.9093 -54.6706 -10.7571 -236.843 -558.798 -353.769 9.04555 181.518 -2.51078 -251.046 422.839
208 1 -24.0982 -52.1198 -13.7139 894.351 866.435 810.074 81.2276 -229.423 46.619 -836.938 435.601
109 1 -24.0975 -54.7192 -11.874 902.692 1116.97 998.626 5.97391 37.0922 27.1948 -828.509 202.522
111 1 -21.4356 -54.7949 -10.0965 1047.08 1015.74 829.331 -95.7021 101.38 98.5189 -836.187 359.167
120 2 -21.2426 -53.5204 -9.06056 -663.374 -105.14 -289.099 83.1484 95.734 252.427 -242.461 694.383
205 1 -23.8675 -49.399 -12.1098 801.331 704.85 1019.71 75.9594 -183.895 83.8311 -847.313 466.81
206 1 -21.49 -52.0575 -8.34628 755.499 1003.77 926.449 109.594 47.418 114.458 -830.431 361.249
207 1 -21.5466 -49.4607 -10.0894 1206.92 873.146 831.523 -17.6527 -172.93 142.466 -825.005 527.797
210 2 -20.4846 -49.5477 -11.4198 -307.579 -544.284 -80.1632 -20.2966 -209.059 114.896 -248.709 577.524
211 2 -23.7476 -50.7267 -12.9982 -588.062 -426.498 -510.662 74.7634 183.833 100.037 -246.242 409.589
212 2 -21.4001 -50.8482 -9.36906 -617.133 -420.659 -596.521 -62.7845 1.69841 37.8658 -256.843 226.081
213 2 -22.993 -49.3372 -10.7872 -658.108 -547.245 -374.69 -0.84796 111.855 33.6065 -246.61 319.563
214 2 -22.989 -52.2314 -7.88529 -473.179 -633.99 -553.662 64.995 52.5161 -11.1035 -252.8 201.772
215 2 -23.9956 -53.3614 -12.7441 -696.495 -311.347 -562.65 47.0047 -78.3565 2.50651 -249.382 373.858
216 2 -21.2736 -48.1722 -9.17506 -594.407 -237.509 -354.235 -8.58212 -33.8573 181.689 -252.514 449.483
311 2 -23.629 -48.142 -13.0141 -656.402 -466.556 -604.335 -40.5194 23.669 -30.5694 -245.531 195.646
2605 1 -19.4334 -54.6791 -12.5387 949.637 1098.64 841.387 53.211 -62.9389 -85.2353 -827.441 303.685
2701 1 -19.5642 -49.4366 -12.733 1129.42 760.219 880.512 -71.3204 -87.8685 -65.6507 -837.919 397.143
2705 2 -20.4074 -51.8132 -7.17916 -360.799 -577.385 -494.954 -105.073 74.0409 -43.4019 -249.149 301.777
2707 2 -19.6725 -50.6324 -13.7548 -643.818 -351.517 -525.368 -69.1505 -131.313 80.837 -248.923 387.977
2711 2 -19.8387 -53.3276 -13.3812 -583.24 -42.1996 -319.508 -55.2299 60.3441 -221.678 -253.011 622.164
220 1 -24.501 -52.2236 -7.38878 906.275 998.317 981.162 -98.1071 -10.8069 -72.6053 -830.211 228.532
27666 2 -25.3795 -49.4366 -11.5842 -292.593 -560.699 -613.032 2.93122 -121.889 -45.8955 -235.246 373.586
2613 2 -17.9036 -54.5591 -12.0599 -414.491 -606.405 -571.445 -77.546 121.383 -13.9336 -248.772 306.868
2806 2 -17.7841 -46.9424 -7.83792 -462.159 -581.527 -399.337 -39.7091 -71.2082 43.8807 -247.076 226.744
209 2 -25.6044 -51.9609 -8.58889 -398.51 -633.764 -529.73 -29.4786 159.789 -40.5602 -243.254 354.729
316 1 -24.6362 -47.006 -7.25153 954.062 863.553 1022.88 74.2361 -133.828 36.3054 -827.72 305.57
2801 2 -20.3362 -46.7639 -7.1679 -183.994 -564.393 -501.818 72.0946 127.535 22.8178 -251.992 436.768
302 1 -21.5538 -46.8679 -8.22493 961.885 906.346 1028.35 17.5863 -20.5232 46.122 -829.875 140.592
310 2 -23.0517 -47.0317 -7.68076 -140.524 -506.133 -550.572 12.8742 -47.5699 -31.4677 -253.378 402.677
2710 2 -17.9192 -51.9443 -7.84548 -515.33 -656.026 -586.068 24.1769 30.8219 -103.877 -253.929 227.643
2709 2 -17.9921 -49.4862 -12.258 -307.769 -535.076 -491.633 -44.7487 103.674 11.9007 -243.717 286.981
5106 2 -10.333 -54.8724 -11.3697 -289.853 -641.501 -441.459 -18.601 -91.6827 -30.529 -248.825 349.829
5109 2 -12.859 -54.7372 -10.4681 -281.22 -610.637 -421.199 -24.3049 131.955 15.509 -244.652 369.767
2610 2 -15.4334 -54.7427 -11.1727 -473.675 -577.933 -578.417 -57.3472 -36.8253 59.1549 -249.092 188.023
5200 1 -13.9011 -52.1645 -13.5883 1017.38 738.16 707.697 38.6011 -51.5508 -191.796 -849.925 458.47
2607 1 -16.9574 -54.7826 -10.8142 690.249 1042.4 1032.41 60.9257 -171.262 -7.19576 -837.675 468.909
2616 2 -17.2675 -53.5305 -9.77799 -548.942 -185.882 -491.352 -22.9678 18.7058 210.337 -242.774 499.577
2702 1 -16.9708 -52.0825 -9.12374 1075.54 1005.98 883.994 98.2022 39.3204 -8.61472 -833.818 248.99
2703 1 -16.9779 -49.5438 -11.0234 974.446 947.897 1072.74 111.227 -97.65 68.2956 -840.919 304.45
2706 2 -15.4104 -49.5219 -11.5286 -152.227 -543.822 -554.035 35.5647 -109.915 -51.0436 -241.074 453.106
2708 2 -17.2336 -50.9129 -10.206 -539.839 -275.895 -402.564 -62.2778 19.6682 -173.223 -251.003 393.818
2712 2 -17.0749 -48.2562 -10.0641 -585.934 -165.182 -401.427 21.6021 70.4694 171.223 -248.375 487.537
5101 1 -13.9114 -54.7349 -11.7167 850.411 980.591 1091.95 -30.5182 -70.4134 88.5227 -835.227 291.584
5103 1 -11.299 -54.8082 -10.0536 1050.44 985.501 899.21 28.5886 -148.682 1.30693 -837.974 293.332
5112 2 -10.9736 -53.4462 -9.267 -583.452 -166.601 -446.563 -55.3659 26.541 176.848 -244.228 490.486
5197 1 -13.8733 -49.517 -12.0294 1009.71 775.322 976.439 -13.2206 -164.796 -48.986 -849.821 370.733
5198 1 -11.2474 -52.0802 -8.36906 872.382 917.427 1151.67 97.1283 -35.8002 176.846 -837.398 439.795
5199 1 -11.3429 -49.5195 -10.1677 1135.55 819.059 1077.02 79.1781 11.9589 179.047 -838.72 447.749
5201 2 -15.404 -52.0373 -8.62618 -150.76 -625.933 -597.389 -34.9754 131.122 9.68747 -248.695 518.239
5203 2 -13.6347 -50.7888 -12.9603 -692.605 -653.809 -710.635 -104.506 -21.0784 -98.865 -240.513 256.807
5204 2 -11.0803 -50.7826 -9.26492 -579.815 -494.944 -617.865 -4.53276 -57.1645 -71.907 -249.236 193.02
5205 2 -12.8364 -49.6741 -10.8285 -338.728 -544.653 -560.965 54.45 197.036 1.12731 -240.038 414.002
5206 2 -12.7697 -52.1994 -7.85883 -229.123 -546.988 -552.748 -29.3311 -11.7538 -14.8739 -252.213 326.437
5207 2 -13.7237 -53.397 -12.5425 -655.302 -348.628 -498.657 -4.07807 3.48914 -74.6502 -244.205 295.554
5208 2 -11.1937 -48.1909 -9.25154 -517.816 -321.701 -455.48 -20.5625 -29.7943 167.765 -249.906 344.222
5303 2 -13.5539 -48.1428 -12.787 -577.762 -381.168 -544.808 2.23815 15.1838 -53.337 -244 206.15
5212 1 -14.3225 -52.0958 -7.48825 814.391 1208.97 984.028 -44.4493 -118.639 161.674 -835.461 494.07
5297 2 -15.3818 -46.7105 -8.74171 -211.741 -564.538 -388.54 -0.611079 268.085 -19.7977 -236.746 556.897
5308 1 -14.3868 -46.7419 -7.41298 889.484 912.287 1165.01 1.83638 13.1683 -30.6608 -838.589 271.11
2798 1 -16.9561 -46.8769 -9.18154 1083.8 941.715 849.769 17.5628 -16.2125 107.359 -837.589 279.279
5202 2 -10.3462 -49.5447 -11.4771 -490.634 -587.134 -371.588 -14.4223 -123.334 1.59044 -242.971 285.022
5302 2 -12.8643 -46.735 -7.87988 -469.342 -518.058 -574.202 27.1862 -77.1128 20.6997 -254.351 172.054
5294 1 -11.4 -46.8205 -8.45051 878.869 880.161 1150.83 -10.4268 81.3534 -112.315 -835.955 362.819
27486 2 -25.9323 -60.0993 -4.37666 -416.576 -677.513 -524.46 -16.9718 -83.2288 -85.3218 -240.019 308.319
125 2 -25.5453 -57.2872 -0.447658 -385.229 -591.386 -556.325 -0.0816095 85.35 -56.7193 -250.143 260.782
29 2 -25.722 -62.8861 -0.184792 -481.882 -624.322 -420.314 -82.4168 187.942 -16.2038 -244.317 399.977
2524 1 -18.9432 -62.6328 -6.61638 982.681 976.777 916.24 79.8467 -28.8851 -99.0553 -835.005 234.782
2620 1 -19.0263 -57.378 -6.65872 1050.05 952.163 895.681 160.343 68.0072 -161.262 -838.582 432.806
25 1 -24.8425 -60.2261 -5.58649 1063.47 991.585 785.652 102.419 -136.805 -51.3277 -843.931 397.364
26 1 -22.2483 -62.8152 -2.17109 1049.54 919.787 721.609 -14.6882 -105.798 107.928 -837.243 388.581
27 1 -22.2217 -60.182 -3.88663 921.355 906.643 1052.05 -32.6208 1.99133 -68.0782 -835.02 190.599
30 2 -20.6945 -60.2033 -4.42371 -402.407 -564.363 -567.773 36.7763 -60.1166 32.0954 -251.498 211.621
31 2 -25.0853 -61.6301 -6.30097 -586.007 -334.425 -527.442 -81.4328 -45.6214 26.7814 -247.177 283.336
32 2 -22.4652 -61.5147 -3.03035 -637.804 -362.394 -602.176 29.9992 -5.08152 14.2822 -250.791 265.889
33 2 -23.3507 -60.1471 -5.06301 -382.11 -663.902 -501.489 42.0546 77.2612 55.1642 -244.354 303.909
34 2 -23.2926 -62.7588 -0.937562 -437.661 -658.604 -394.34 0.758995 -114.783 -21.7942 -245.467 318.144
36 2 -22.3245 -58.8275 -3.04502 -579.512 -437.193 -563.223 41.2982 43.8324 91.3225 -248.117 232.598
122 1 -22.0904 -57.503 -2.20106 897.684 868.292 936.725 58.287 29.17 -110.5 -839.567 230.024
127 2 -24.7735 -56.295 -6.48141 -584.458 -427.715 -466.929 63.8724 40.2013 117.592 -247.569 280.233
128 2 -22.3515 -56.2381 -3.21931 -588.912 -242.522 -390.648 15.4298 -76.9055 -163.289 -243.204 434.817
130 2 -23.0215 -57.4782 -0.920096 -496.612 -614.236 -481.272 -38.9987 -101.366 18.6145 -247.648 228.697
131 2 -24.929 -58.9313 -6.55086 -723.845 -259.528 -514.986 58.9938 -76.8145 -87.6769 -241.137 461.995
2521 1 -19.1967 -60.0613 -4.85368 742.712 976.012 1172.51 -100.936 -56.1726 -60.3075 -838.235 435.688
2525 2 -20.7386 -62.7378 -1.60213 -343.157 -624.838 -473.886 13.8769 121.022 -61.837 -246.285 339.998
2527 2 -18.7003 -61.278 -5.84192 -502.911 -332.918 -550.354 -111.741 -64.3073 100.006 -247.661 345.082
2621 2 -20.5794 -57.336 -1.71618 -383.957 -555.978 -576.999 8.78541 106.355 -30.342 -248.306 265.664
2623 2 -18.7184 -56.091 -5.78727 -441.824 -415.704 -430.702 -42.9332 78.2942 190.469 -254.337 365.063
2627 2 -18.9348 -58.6776 -5.63908 -580.576 -288.432 -338.527 82.453 -82.7448 -237.66 -243.554 532.546
2632 1 -19.566 -57.3725 -0.473191 1024.89 1003.36 1055 -46.587 -132.339 52.8232 -835.89 263.515
2536 1 -19.6747 -62.7972 -0.406422 885.083 924.293 1092.25 -92.5593 -142.246 54.6516 -835.607 362.901
2530 2 -18.1418 -62.9446 -0.932987 -146.347 -545.567 -555.277 -52.3291 -77.6252 48.6823 -248.16 443.564
2531 2 -18.7916 -63.987 -5.73702 -549.331 -93.1125 -520.858 6.89005 -2.79598 -125.394 -251.608 493.247
2626 2 -17.9672 -57.3057 -0.890736 -59.7724 -556.489 -527.122 -39.3381 -41.2815 -8.79285 -248.8 492.94
2529 2 -18.2101 -60.2327 -3.57193 -235.621 -560.084 -570.483 -56.4418 115.184 -90.3365 -239.628 427.317
2522 1 -16.5993 -62.8537 -1.42426 946.08 921.53 1020.63 -16.4263 -22.11 26.1358 -827.371 110.974
2523 1 -16.6301 -60.2128 -3.1605 1019.41 842.41 946.054 18.853 -67.3716 121.19 -832.137 287.176
2526 2 -15.7215 -60.2137 -4.48247 -361.898 -527.967 -348.104 12.3835 -131.402 -52.7801 -260.188 301.126
2528 2 -16.4306 -61.4413 -2.1725 -619.442 -440.751 -400.309 50.4653 -35.9864 -147.739 -253.21 343.217
2532 2 -16.4722 -58.8613 -2.29201 -608.067 -389.912 -390.949 -61.3128 -35.1638 144.439 -247.646 353.47
2618 1 -16.477 -57.4838 -1.45704 986.176 843.405 970.52 49.9822 44.9674 93.5027 -835.769 241.21
2624 2 -16.1592 -56.2401 -2.37948 -578.672 -420.737 -472.141 -50.201 12.3612 -93.6483 -251.785 231.94
5017 1 -14.6465 -60.0962 -5.66524 1108.73 981.365 856.569 23.8094 99.4415 29.9166 -827.99 285.908
5018 1 -12.0048 -62.8251 -2.21213 872.715 1026.8 880.51 -42.3012 33.0083 119.369 -838.036 272.001
5019 1 -11.9715 -60.1313 -3.92762 815.791 796.371 988.065 -6.1165 20.7249 -152.241 -823.523 323.007
5023 2 -14.7451 -61.373 -6.64988 -584.882 -348.179 -384.87 -22.8618 -15.3525 204.346 -243.529 419.805
5024 2 -12.2732 -61.47 -3.01852 -512.991 -347.621 -396.286 29.1355 -1.63845 -194.576 -249.163 371.217
5025 2 -13.1329 -60.0004 -5.05821 -101.198 -542.024 -483.309 -7.01664 128.316 -45.4117 -253.77 477.097
5026 2 -13.024 -62.9381 -0.993808 -448.142 -619.904 -478.467 10.1507 -80.1062 44.6345 -249.72 225.278
5028 2 -12.1292 -58.8918 -3.00314 -545.159 -495.439 -543.024 -11.7682 -44.6885 -10.2834 -258.842 95.3645
5114 1 -11.8785 -57.4888 -2.25264 1148.37 884.786 885.396 56.0905 -61.9023 75.647 -825.419 327.749
5117 2 -15.3018 -57.5321 -0.309592 -488.33 -585.704 -452.458 -13.6197 141.612 35.4893 -244.754 280.639
5119 2 -14.7945 -55.9486 -6.56362 -526.622 -281.959 -473.53 -75.0963 4.78045 104.403 -252.407 315.24
5120 2 -12.0948 -56.1678 -3.09968 -587.399 -98.0001 -596.666 15.8522 -58.2775 -13.3612 -257.534 505.579
5122 2 -12.8373 -57.3539 -0.911325 -483.425 -558.492 -161.354 -49.4565 -186.109 4.0271 -243.112 494.811