ITEM: TIMESTEP
1460000
ITEM: NUMBER OF ATOMS
29952
ITEM: BOX BOUNDS pp pp pp
-2.5615833775063237e+01 3.5601128117061187e+01
-1.0998782433362068e+02 1.1997311866781943e+02
-2.1035324467156940e+01 3.4903177627851115e+01
ITEM: ATOMS id type x y z v_StrAtomXX v_StrAtomYY v_StrAtomZZ v_StrAtomXY v_StrAtomXZ v_StrAtomYZ c_PEAtom v_VMS
4904 2 -18.3094 -68.514 -15.8792 91.9026 -563.412 -66.641 -324.151 38.3048 73.97 -303.654 828.683
2400 2 -19.6422 -68.6674 -18.4523 96.9104 -461.269 -155.33 -299.721 568.78 -139.145 -271.861 1237.94
4901 2 -20.9181 -68.4791 -15.1734 4.09138 -592.905 -554.842 -149.124 128.56 -156.754 -288.717 724.668
4912 1 -19.4917 -68.4048 -14.4684 548.41 937.974 1308.08 194.564 117.441 73.6 -734.474 777.244
2316 2 -21.9671 -68.3394 -17.5582 -558.034 -460.422 -122.937 -26.414 -173.004 -45.566 -265.182 504.459
2494 2 -21.9669 -68.2885 -20.2544 14.7322 -490.951 -71.9436 -38.8124 581.029 -155.86 -264.363 1144.37
2410 2 -23.6249 -67.9185 -15.4187 135.974 -402.357 -669.929 -54.349 -170.232 -170.276 -280.048 829.589
2486 1 -21.1048 -68.0187 -18.8885 1135.98 985.488 926.477 38.7832 -38.5519 4.67917 -784.462 209.877
2402 1 -22.1062 -67.8327 -15.9985 605.37 797.419 1186.41 228.645 74.1602 373.29 -775.138 924.271
2416 1 -25.0594 -67.7353 -14.739 324.54 621.595 1308.18 -303.057 -100.183 -59.0309 -780.792 1039.08
4900 1 -18.1943 -68.5953 -17.6128 1149.1 846.103 1243.2 53.3529 -20.2954 383.027 -757.728 760.972
4896 2 -16.5511 -72.3649 -17.6515 -288.665 132.328 -546.688 -4.52546 59.2447 27.1161 -172.158 604.346
7392 2 -12.114 -71.6873 -15.0356 305.398 -581.949 -934.29 -38.3386 62.1364 71.2886 -267.394 1120.45
4982 1 -16.1378 -71.0615 -17.0039 983.403 600.6 1579.22 261.486 -72.3189 -186.867 -805.201 1027.22
7478 1 -10.7711 -70.8232 -15.2011 556.668 202.576 1965.98 -73.8922 -157.01 24.7959 -730.441 1644
4812 2 -16.7852 -70.7164 -15.4754 -475.193 -243.851 -654.57 -105.428 -61.771 95.0318 -264.83 446.181
7396 1 -13.3776 -70.7938 -15.4408 526.56 218.082 2102.59 26.3543 32.5719 -52.7435 -735.493 1754.65
7481 2 -14.5092 -70.8071 -16.6066 264.968 -114.979 -590.819 -92.7264 498.079 -76.8485 -277.818 1157.3
4990 2 -16.9216 -69.6559 -17.7015 220.26 -15.199 -553.38 -542.509 218.359 -172.81 -263.189 1259.91
7486 2 -12.0101 -69.7496 -15.9018 158.83 -257.693 -1155.81 -73.6024 32.2016 -20.0376 -303.291 1172.5
4898 1 -17.1183 -69.3584 -14.8262 218.819 962.412 1232.09 383.836 80.9925 -125.396 -737.813 1155.43
7397 2 -15.9162 -68.3642 -14.4322 -80.4327 -395.463 -602.716 202.339 104.408 82.5977 -287.347 619.26
7394 1 -11.9435 -68.0771 -15.7863 859.111 308.918 1339.86 127.994 20.4205 346.616 -751.679 1099.62
7402 2 -13.2685 -67.8512 -14.9335 -75.9796 -559.977 -717.438 46.7702 -88.9642 23.6807 -281.676 606.009
7400 2 -12.0944 -67.2834 -17.1434 -503.973 -131.124 -576.332 -111.471 207.198 -377.092 -275.62 874.012
4903 2 -17.7007 -67.1147 -18.0014 -445.499 107.993 -594.505 236.189 -91.9158 -255.231 -266.962 893.957
7399 2 -14.0325 -70.004 -14.1711 -436.946 -20.8908 -579.46 -220.709 -202.49 380.589 -270.042 977.953
7408 1 -14.4083 -68.3951 -13.9117 508.313 799.773 1088.14 -66.9059 62.9437 -410.999 -769.371 885.563
2407 2 -23.6479 -66.4208 -20.0955 -524.254 -503.847 -262.606 -101.118 -172.654 141.526 -259.901 493.689
4985 2 -20.7923 -66.3954 -18.943 -645.855 -158.545 -574.483 80.0253 -60.8623 -115.097 -273.265 527.116
2408 2 -21.7119 -66.2618 -16.0717 -524.378 -551.227 -793.657 24.2964 -62.7697 56.3487 -271.485 298.528
2401 1 -24.3223 -65.451 -18.96 746.069 1115.26 880.476 65.4071 -100.61 97.1256 -809.674 419.819
2409 2 -23.2855 -65.2163 -17.8147 -588.379 -531.591 -629.764 -0.0306204 2.18062 -96.1367 -267.574 187.16
2403 1 -22.223 -64.9132 -16.6246 962.804 255.549 903.643 94.4187 195.177 -67.99 -785.369 785.342
4897 1 -20.2984 -64.8872 -18.7647 731.441 772.615 921.722 5.10465 279.402 381.336 -783.979 837.015
4905 2 -18.7084 -64.8555 -18.5061 -524.044 -628.364 -752.828 123.664 -65.9252 -62.2553 -265.677 331.515
2406 2 -20.9713 -64.3189 -17.4214 -558.909 -618.427 -328.305 -113.379 -189.086 33.3873 -268.386 468.631
2507 2 -20.4261 -64.0028 -20.0812 -544.062 -398.974 -452.954 120.008 -244.772 -87.4382 -271.629 511.873
11 2 -24.5551 -64.0576 -19.794 -481.16 -138.212 -350.621 -43.7134 98.822 -309.377 -259.068 641.917
2412 2 -22.9268 -64.0327 -15.5293 -551.53 -452.924 -683.725 -52.6212 -98.2436 74.7092 -264.135 306.987
2506 2 -18.3056 -62.9934 -15.2841 -337.618 -459.012 -509.407 57.9435 -185.977 -40.1782 -266.064 376.924
2501 2 -20.9482 -62.7256 -14.6058 -400.125 -428.068 -713.147 -107.982 -19.4464 59.4066 -259.874 369.755
2 1 -22.4849 -62.5767 -15.0116 743.841 592.418 932.878 176.907 285.308 -200.116 -804.572 738.591
7 2 -24.2835 -61.4652 -20.6471 -588.423 -400.067 -609.647 21.6183 24.5414 -55.8856 -256.114 229.139
2503 2 -19.597 -61.4972 -19.9589 -547.191 -303.323 -361.833 50.2998 -0.30404 178.318 -263.639 389.37
8 2 -22.5041 -61.6311 -16.3221 -562.378 -375.273 -330.522 40.5143 -111.588 -115.978 -264.276 357.794
9 2 -23.0951 -60.3572 -18.5751 -346.582 -463.296 -442.938 -96.1663 112.303 -61.2117 -265.134 297.457
2497 1 -19.4567 -60.2103 -18.9279 859.015 587.733 1166.54 73.3184 -24.7392 109.646 -809.848 552.828
6 2 -20.6061 -60.3844 -17.7892 -23.3789 -398.092 -485.162 35.075 -287.606 10.9502 -260.901 657.89
1 1 -24.3346 -60.208 -19.6217 934.235 737.08 994.058 117.872 53.3795 133.498 -813.329 397.415
3 1 -22.181 -60.3828 -17.2879 1030.93 948.364 842.65 2.63324 -72.7002 6.46335 -810.034 206.693
2505 2 -17.9619 -60.2582 -18.3808 -316.187 -378.751 -604.11 -82.9907 66.6867 -24.3252 -264.665 323.387
2500 1 -19.6355 -62.8213 -20.8501 726.097 887.312 787.27 20.3062 141.351 12.7787 -782.991 285.548
2512 1 -19.4331 -63.0364 -14.1425 899.778 686.627 872.095 105.889 59.2795 -127.135 -812.457 364.65
7401 2 -13.8205 -66.1598 -19.0291 -322.68 -487.204 -182.873 -20.747 361.816 -204.521 -276.659 767.545
7395 1 -12.453 -66.0657 -18.1622 729.307 1012.86 924.328 -44.9618 46.6217 539.426 -785.6 973.994
7398 2 -11.3237 -66.1959 -19.2816 -493.478 -674.954 -470.045 -119.437 -129.2 -44.725 -268.117 369.608
7393 1 -14.8742 -65.4654 -20.0325 729.628 979.407 1025.07 112.797 113.288 365.166 -765.967 743.365
4899 1 -17.3219 -65.4605 -18.1416 352.107 1013.72 970.847 49.6836 108.576 158.385 -786.849 727.487
4902 2 -16.2055 -65.2346 -19.213 -428.575 -545.959 -652.607 102.102 -88.146 -212.734 -280.108 477.517
4908 2 -16.9447 -64.7591 -16.76 -547.992 -270.992 -620.68 -21.7965 -153.727 89.0551 -263.914 445.265
7404 2 -12.4213 -64.7131 -17.2343 -357.152 -241.934 -219.164 50.3049 41.816 251.245 -269.966 467.575
5003 2 -14.1336 -64.14 -20.6301 -293.103 -456.461 -545.414 78.1923 -168.199 -191.397 -284.079 512.096
4997 2 -15.7708 -63.3985 -14.9809 -532.875 -473.166 -415.153 -59.0919 165.01 -152.587 -256.449 415.215
5002 2 -13.3195 -63.5017 -14.9826 -833.147 -407.349 -536.392 -9.03276 -81.5443 85.289 -258.821 430.146
7493 2 -10.8235 -63.6951 -15.282 -342.607 -390.921 -541.514 138.963 223.222 32.2857 -258.177 492.779
4994 1 -12.1952 -63.5385 -16.1099 774.091 530.417 1332.3 -130.652 72.5471 75.1544 -810.159 768.721
2498 1 -16.953 -63.3065 -16.0673 854.415 729.607 902.342 -143.973 53.9976 -13.448 -804.614 308.756
2504 2 -16.6548 -62.2237 -17.1969 -448.814 -288.815 -521.292 83.1678 -23.4001 -84.5046 -269.793 293.71
5000 2 -12.173 -62.1794 -16.9369 -428.266 -309.825 -650.146 108.134 16.3129 -125.387 -260.224 415.43
4999 2 -13.3858 -61.6479 -20.1549 -427.972 -240.195 -481.942 -1.64747 -89.5164 303.053 -262.672 589.812
2499 1 -16.5652 -60.6851 -17.6806 816.711 672.186 1079.7 -92.1521 -15.0774 -134.772 -804.254 456.847
2502 2 -15.3781 -60.4854 -18.7892 -139 -332.376 -466.565 105.738 -209.897 -33.3508 -267.967 500.398
4995 1 -11.7976 -60.6169 -17.1486 815.648 795.091 845.36 -116.235 -6.48777 -42.6182 -811.572 219.142
4993 1 -13.8754 -60.2749 -19.3801 1008.18 774.823 1113.04 -119.585 -121.39 -55.7477 -799.916 431.686
5001 2 -12.8009 -60.0161 -18.2423 -224.499 -529.814 -753.884 6.25156 88.8866 -82.084 -262.916 505.835
2508 2 -16.3383 -59.7535 -16.4535 -584.849 -336.231 -594.793 2.76475 -16.4332 119.531 -261.61 328.752
5034 2 -10.5656 -61.1898 3.03379 -284.235 -820.85 -362.807 -9.23704 -115.641 8.33403 -232.46 540.879
107 2 -24.3327 -58.8351 -20.42 -494.011 -583.164 -572.992 -97.0648 -1.24325 -121.352 -258.559 282.122
2603 2 -19.7533 -58.9505 -19.7932 -609.455 -637.758 -678.786 44.8368 -96.0417 61.5054 -259.575 220.675
12 2 -22.4589 -59.0748 -16.3514 -514.072 -512.602 -336.066 -55.2976 -78.4665 160.739 -255.668 369.571
2597 2 -20.7201 -58.1553 -14.6007 -232.8 -380.856 -656.142 12.1221 125.847 166.978 -253.789 519.672
98 1 -22.2571 -58.1572 -15.0666 913.335 623.594 1215.39 93.9416 150.16 -205.336 -825.592 695.206
2596 1 -19.6544 -57.5883 -20.5823 922.957 797.204 747.927 84.9662 89.2235 59.888 -814.433 284.146
103 2 -24.8289 -56.3915 -20.3163 -552.126 -487.221 -349.293 44.1604 148.385 199.985 -255.248 473.367
104 2 -22.6706 -56.7195 -15.6583 -636.324 -376.693 -690.766 -78.0352 73.5228 -122.82 -250.685 405.273
2599 2 -20.269 -56.401 -19.6845 -570.618 -466.84 -331.399 -64.914 -33.7587 118.519 -249.587 318.388
105 2 -23.5197 -55.941 -18.0169 -466.665 -655.616 -384.583 38.0788 80.092 162.676 -253.792 401.166
2601 2 -18.4458 -56.295 -17.8324 -239.008 -531.248 -634.122 -60.5553 109.164 63.9054 -254.015 430.179
2593 1 -19.838 -55.6503 -18.297 889.337 766.429 1176.02 59.5766 89.8214 -106.402 -823.648 448.714
97 1 -24.7244 -55.5434 -18.941 900.689 1001.03 726.32 129.258 -17.2428 28.5144 -825.843 333.799
102 2 -21.0208 -55.7428 -17.2022 -230.258 -490.873 -568.317 -144.636 -151.174 147.917 -253.153 539.499
99 1 -22.5694 -55.5885 -16.7395 895.25 946.806 995.152 -53.9845 53.9759 25.0289 -820.617 163.861
203 2 -24.5049 -54.0013 -19.3482 -575.445 -340.009 -551.581 34.1983 -3.64452 -125.618 -247.99 318.229
2699 2 -19.5748 -54.1421 -18.722 -579.746 -337.913 -545.574 30.1436 -57.5446 -166.498 -248.153 383.682
108 2 -22.8712 -54.0386 -16.2952 -473.88 -215.39 -563.544 -18.9898 -34.4829 151.639 -257.4 414.326
2704 1 -19.4 -52.9698 -14.3586 968.284 810.498 940.359 79.2182 270.911 -147.681 -823.248 570.705
2692 1 -19.3973 -53.0191 -19.8955 1077.47 760.133 1046.05 -42.1925 133.977 -64.8477 -835.002 404.384
2693 2 -20.9317 -52.8478 -15.0413 -302.581 -411.841 -513.553 -14.1451 184.288 68.4422 -255.893 387.214
194 1 -22.3974 -52.7345 -15.5403 824.546 653.837 1350.23 -23.8555 -85.3315 -113.024 -828.413 676.095
2698 2 -18.3382 -52.7297 -15.5048 -531.493 -480.007 -663.881 17.1661 -182.512 11.9687 -251.191 358.106
2782 2 -18.0053 -53.2961 -20.6296 -340.245 -455.134 -432.058 40.3324 -165.751 9.07976 -253.514 314.052
196 1 -24.4226 -53.0994 -20.6794 840.048 648.915 1146.98 -38.9215 75.981 -10.0112 -838.292 459.969
5213 2 -15.9597 -52.5285 -0.973453 -315.802 -645.888 -233.672 105.79 173.205 142.85 -240.415 572.369
29898 2 -25.3823 -64.7395 2.6724 -792.19 -437.625 -802.929 -112.44 -137.703 306.157 -254.144 711.091
5004 2 -12.106 -59.7733 -15.8568 -586.363 -311.925 -737.184 18.2049 14.0935 134.607 -251.619 442.042
2602 2 -18.0613 -58.7375 -14.7856 -79.1126 -503.755 -570.098 64.8859 -192.471 -87.3442 -251.482 599.623
5099 2 -13.8456 -59.1523 -20.5628 -459.62 -387.301 -423.533 45.3388 0.717527 -214.166 -261.957 384.307
5093 2 -15.4744 -58.4066 -14.2744 -377.689 -546.354 -467.926 54.8475 159.488 84.3878 -253.785 357.866
2594 1 -16.5474 -58.4925 -15.4404 1065.63 755.664 959.959 98.5581 -127.339 -43.6732 -817.885 397.493
5090 1 -11.9369 -58.434 -14.9477 726.284 927.938 904.013 89.3519 16.5259 -187.45 -823.241 408.161
2600 2 -16.5 -57.1918 -16.3339 -572.974 -376.561 -588.833 33.0628 -64.6892 8.42666 -264.588 240.813
5096 2 -12.3107 -57.1489 -15.8468 -607.47 -189.948 -406.691 -12.8037 -35.1614 -83.2276 -257.437 394.7
5095 2 -13.9027 -56.6474 -20.1874 -501.875 -429.272 -415.94 -12.765 -9.76805 160.659 -258.417 290.905
2598 2 -15.9775 -56.0811 -18.682 -477.343 -369.826 -547.755 175.303 -209.011 -55.4745 -255.617 506.527
2595 1 -16.8922 -56.0907 -17.3958 778.331 821.04 1127.93 -54.3035 136.991 35.6672 -818.087 421.987
5097 2 -13.6925 -55.9001 -17.6965 -456.216 -553.936 -563.149 -60.3152 20.2333 8.58431 -258.835 151.319
5091 1 -12.3873 -55.8268 -16.7837 963.091 913.045 859.594 26.9528 -79.1143 -93.454 -819.246 234.934
5094 2 -11.0314 -55.7475 -17.6785 -385.022 -513.057 -588.07 58.2353 -42.6929 -21.4107 -259.657 220.549
5089 1 -14.4439 -55.6438 -19.0803 942.687 825.719 855.884 6.58735 -36.2448 -76.626 -811.731 180.967
2604 2 -16.9226 -54.5487 -16.8043 -493.439 -160.902 -617.583 -56.4809 -77.1666 138.608 -256.09 502.341
5100 2 -12.383 -54.4251 -16.0133 -595.263 -292.589 -630.977 23.2083 6.01012 143.557 -251.356 408.959
5195 2 -14.1813 -54.1769 -19.6452 -458.297 -216.98 -392.917 176.415 -85.5087 -249.428 -260.414 590.488
2690 1 -16.9154 -53.1003 -16.1416 849.142 725.169 1094.13 -33.2441 66.3975 -37.077 -823.546 355.566
5189 2 -15.9172 -53.0468 -14.8925 -409.543 -524.505 -447.589 21.2645 108.213 32.0583 -255.05 223.293
5186 1 -12.1512 -52.9419 -15.4123 851.449 733.385 1291.95 -182.975 63.0924 -27.1651 -818.375 612.034
5188 1 -13.9988 -52.9994 -20.8049 865.778 762.582 1209.08 -8.54569 29.573 -106.533 -815.407 448.133
7589 2 -10.4123 -58.2765 -14.5607 -369.924 -524.691 -597.046 -11.5795 16.0451 99.9485 -255.545 267.451
7685 2 -10.6788 -52.9887 -14.7495 -138.504 -460.178 -603.943 -59.6452 54.0147 -17.9704 -257.527 436.786
4906 2 -18.3796 -69.386 -13.8486 201.147 -553.977 -940.306 -165.095 5.39826 9.44068 -267.507 1045.62
4915 2 -19.3817 -67.0044 -13.65 -562.796 -53.4405 -288.717 64.9577 -59.381 391.132 -269.961 822.891
2422 2 -23.6062 -68.0559 -7.83735 -191.334 -370.592 -690.341 48.18 -202.057 -76.5042 -261.669 581.974
2414 1 -22.0649 -67.8806 -8.09234 727.863 1145.43 1060.84 -57.4801 68.9501 90.9881 -796.921 441.818
2328 2 -21.7866 -67.5125 -9.67699 -646.883 -438.628 -59.5416 12.1724 -170.232 -233.992 -256.59 719.486
4913 2 -21.0353 -68.9474 -7.31556 -125.994 -654.065 -214.088 20.2017 270.976 -113.195 -233.398 707.141
2428 1 -25.0685 -67.9983 -7.14735 901.84 1064.57 947.946 -165.36 80.6707 57.1209 -826.914 363.932
4918 2 -18.6218 -67.6992 -7.30909 -313.952 -411.313 -593.207 14.5926 -145.696 12.8919 -272.875 353.686
2419 2 -24.8902 -66.8211 -13.4775 -426.935 -391.856 -231.762 9.84575 155.941 234.802 -258.794 520.688
7414 2 -13.4793 -67.5273 -7.8318 96.1039 -417.636 -772.819 89.8937 -46.7669 1.68113 -260.841 776.768
4910 1 -17.2359 -67.6363 -8.01025 513.828 1149.76 897.413 -6.27764 187.574 121.44 -804.078 676.41
7406 1 -11.8695 -67.4267 -8.01766 647.449 1234.73 1172.7 -81.4774 -103.961 103.116 -819.666 629.727
7411 2 -14.3287 -67.6178 -12.5634 -518.946 -131.775 -589.196 -30.8286 -86.0461 343.036 -270.989 748.412
7320 2 -11.5777 -67.0789 -9.57273 -528.68 -442.517 -213.375 75.8893 -136.059 -170.238 -248.404 489.316
4824 2 -17.3931 -67.2467 -9.56233 -568.872 -479.201 -254.915 -4.28406 -199.11 -326.902 -250.666 719.751
9905 2 -10.8627 -68.5178 -7.36696 136.88 -813.153 -424.62 92.6162 379.204 0.618024 -223.752 1068.42
7409 2 -16.0454 -68.6532 -7.64954 42.3555 -901.405 -468.523 47.7566 83.0933 11.5573 -237.859 835.159
7420 1 -14.8903 -67.6401 -7.12006 544.845 1175.95 1108.68 -133.46 26.6564 -177.768 -814.867 714.655
10 2 -23.3785 -62.2283 -13.8035 -527.708 -575.508 -598.317 25.5721 -141.918 -126.976 -258.471 338.597
2420 2 -21.21 -66.8003 -7.19901 -123.461 -951.107 -394.266 11.3968 132.711 26.327 -235.513 767.794
2421 2 -23.1859 -66.1114 -11.3848 -235.114 -516.5 -227.827 -105.109 283.942 29.9044 -250.931 599.147
2418 2 -20.5772 -66.0303 -11.5604 -409.292 -519.389 -420.446 71.5135 -121.877 -86.0387 -261.165 305.172
2415 1 -21.7689 -66.1806 -10.5459 1088.09 1058.69 533.784 73.3159 302.838 162.241 -822.752 813.661
2413 1 -24.598 -65.8017 -12.1452 963.212 981.982 1182.04 142.676 83.433 -66.2877 -824.079 373.182
4909 1 -19.3144 -65.7647 -12.5583 1128.39 725.114 878.697 64.7982 -7.46136 -19.4369 -806.66 371.728
2424 2 -21.6815 -64.9119 -9.53646 -568.102 -318.799 -288.782 0.848203 -27.4074 210.86 -252.326 454.069
2519 2 -19.4378 -64.4216 -13.3735 -588.574 -588.224 -422.619 16.3776 -54.1209 -28.0543 -266.022 198.586
23 2 -24.6142 -64.3299 -12.78 -457.661 -166.685 -552.034 -78.0167 -7.81156 -103.648 -260.199 414.374
22 2 -23.3369 -64.0997 -7.54882 -321.878 -515.109 -315.454 114.682 -354.795 -91.9245 -239.917 693.589
14 1 -21.8317 -63.8711 -8.28053 1349.55 853.005 1043.99 76.4337 41.4522 -30.9355 -839.53 462.337
16 1 -24.8087 -62.7823 -13.2691 873.667 942.016 849.486 33.9379 100.572 -216.124 -817.657 425.249
20 2 -21.6885 -62.4438 -8.93598 -594.672 -547.625 -456.826 -11.5726 -94.7197 -56.1225 -251.308 226.928
2515 2 -19.1045 -61.8839 -13.0997 -634.666 -638.173 -525.936 -52.1254 -67.9472 18.2811 -252.34 187.67
21 2 -23.5247 -61.3537 -10.5176 -222.266 -548.974 -588.221 -99.7385 -29.0846 119.883 -244.98 443.393
18 2 -20.8982 -61.2538 -11.1925 -343.1 -475.207 -465.03 14.6495 -187.32 -27.3618 -255.595 352.659
15 1 -21.9309 -61.2839 -9.99714 1142.72 572.445 998.787 125.904 220.491 -134.077 -833.384 714.972
2517 2 -18.3502 -60.7688 -10.853 -536.715 -503.958 -457.428 -17.6107 78.6502 54.4444 -247.013 182.052
2509 1 -19.4968 -60.8803 -11.9489 1149.15 810.966 770.455 75.8022 -15.9829 -144.918 -831.55 459.042
13 1 -24.9025 -60.7922 -11.0292 925.714 800.106 793.267 143.687 6.71707 -116.669 -843.534 345.82
2513 2 -20.768 -63.9595 -7.06326 -500.382 -714.894 -79.6557 -28.7558 213.865 140.047 -240.005 715.411
131 2 -24.5579 -59.7089 -7.02426 -752.979 -308.388 -803.834 -27.2124 -135.898 50.297 -237.131 536.724
19 2 -25.3637 -61.8268 -12.1578 -700.523 -447.588 -629.57 -79.5766 -38.7866 70.5589 -249.311 299.182
4917 2 -17.9069 -65.8064 -11.7812 -237.741 -482.752 -261.801 -63.6179 164.413 54.9729 -259.911 396.254
24 2 -21.813 -59.8686 -9.31208 -649.767 -439.122 -615.283 -72.2036 -57.4413 63.6531 -250.57 275.664
4916 2 -16.0843 -66.5145 -7.54779 26.1594 -737.033 -598.562 20.1194 -16.6062 8.76018 -226.883 705.853
7405 1 -14.2428 -66.0803 -12.0074 987.093 894.676 1158.73 26.7247 -54.1332 -199.97 -801.799 429.838
7413 2 -12.8013 -65.7487 -11.3663 -373.872 -523.232 -532.025 104.502 155.142 209.517 -257.57 510.255
7407 1 -11.4564 -65.764 -10.5338 782.546 1191.67 919.327 36.5237 -49.54 -146.083 -829.446 453.336
5008 1 -14.5168 -63.6333 -13.9923 788.778 877.571 968.893 -23.0838 171.744 -40.0546 -814.037 345.3
4914 2 -15.4715 -65.8392 -10.8845 -265.67 -467.934 -333.164 -8.00617 -351.144 36.395 -259.197 637.093
4911 1 -16.9694 -65.9188 -10.4157 910.604 1029.46 922.722 116.407 243.608 -28.3797 -820.405 483.668
5015 2 -14.4469 -65.1316 -13.2938 -509.995 -119.419 -437.007 -75.9157 -19.2802 -194.605 -261.264 511.261
4920 2 -17.3048 -64.7399 -9.37908 -586.115 -392.478 -185.253 73.6201 -34.956 360.642 -249.397 728.477
7416 2 -11.2256 -64.5275 -9.51301 -534.235 -501.208 -421.438 19.3749 100.399 278.556 -241.489 523.675
5014 2 -13.084 -64.0608 -7.80155 -295.044 -435.041 -658.6 135.868 -201.38 119.519 -235.185 566.368
2510 1 -17.1436 -63.6373 -8.1252 1223.04 1089.87 1028.74 9.05969 102.196 -6.27883 -832.853 247.605
5009 2 -15.6011 -63.4501 -7.57456 -313.265 -621.695 -356.336 152.487 134.925 117.83 -248.733 499.722
5006 1 -11.5786 -63.5735 -8.25255 1056.4 975.829 1179.93 91.8085 -17.0085 -255.745 -855.247 504.059
5012 2 -11.4846 -62.136 -8.9158 -504.649 -469.89 -508.266 46.1242 -5.79687 -204.126 -241.906 364.462
5011 2 -14.5182 -62.5921 -12.7672 -537.344 -264.051 -418.86 23.5549 -75.2775 149.465 -261.442 376.869
2516 2 -17.4207 -62.1985 -8.76911 -670.027 -366.618 -499.449 37.2686 -41.7547 -23.5474 -253.323 283.654
2514 2 -15.8552 -61.3995 -10.7391 -304.693 -635.053 -416.534 0.485962 -216.069 158.255 -242.059 547.623
5013 2 -13.1455 -61.4386 -10.8732 -188.461 -434.191 -404.482 188.146 257.944 87.6932 -243.916 618.739
5010 2 -10.5974 -61.4093 -11.2761 -624.879 -448.258 -533.519 -49.0522 -109.61 77.5517 -247.718 291.049
5005 1 -14.5628 -61.3953 -11.7037 1134.67 838.6 967.258 -246.756 47.6517 -124.273 -836.001 549.48
2511 1 -17.1473 -61.0484 -9.80252 1070.55 856.446 1064.39 -5.60462 32.1507 -95.3563 -839.038 273.92
5007 1 -11.7085 -61.0916 -10.1396 1069.71 728.85 1155 -85.7397 132.659 -87.9986 -838.416 500.611
7412 2 -10.9657 -66.4111 -7.08324 53.2051 -1077.74 -488.192 15.8767 266.582 -10.4935 -220.084 1083.58
5111 2 -14.6589 -59.9134 -12.3251 -672.294 -45.4504 -692.374 51.7835 95.6709 103.149 -247.683 688.001
7505 2 -10.5761 -63.6962 -6.98361 -433.725 -825.715 -346.111 -141.073 222.464 85.3622 -233.62 652.465
4996 1 -14.0466 -62.6692 -21.214 451.009 767.062 1249.7 -92.2941 203.649 -50.3918 -781.086 801.849
2615 2 -19.5542 -59.4494 -12.7024 -633.077 -310.362 -445.117 115.433 -116.578 -150.209 -242.859 476.708
119 2 -24.5881 -59.4148 -11.7444 -609.961 -537.692 -450.866 5.66321 33.2917 -32.3446 -246.353 159.988
106 2 -23.106 -58.5151 -13.7275 -617.917 -378.247 -310.678 -76.1457 -281.029 139.41 -252.614 625.167
2711 2 -19.2186 -54.3862 -13.6674 -537.347 -551.396 -508.683 -64.1861 6.19575 7.87811 -257.989 118.67
112 1 -24.5216 -58.3812 -12.9883 924.162 732.31 997.911 -96.0988 97.9079 -141.584 -830.091 415.928
2608 1 -19.2898 -58.3352 -13.8506 1006.24 752.146 1197.3 44.7647 154.409 -137.109 -833.754 532.494
124 1 -24.5242 -58.1094 -7.34616 903.278 1021.05 1007.91 149.003 185.054 -49.5573 -833.737 434.976
110 1 -21.9493 -58.3353 -8.91436 1213.99 894.719 981.868 92.615 211.849 -139.618 -834.146 548.228
2609 2 -20.9317 -58.0572 -7.65466 -220.761 -559.49 -407.369 -7.74961 230.637 53.4542 -242.631 504.662
118 2 -23.4993 -57.9652 -8.57047 -371.313 -548.789 -345.649 -169.472 -145.229 138.894 -249.727 493.986
2614 2 -18.3293 -58.1489 -7.58951 -555.669 -660.136 -540.186 -30.3005 -58.2486 201.521 -244.223 384.104
116 2 -21.4924 -57.2494 -10.0368 -589.879 -27.8885 -437.683 39.2694 -76.1268 -214.764 -245.087 643.309
115 2 -24.8827 -56.9303 -12.4448 -533.646 -476.604 -615.954 -109.549 -117.506 127.024 -253.801 374.906
2611 2 -18.8029 -56.9416 -13.1691 -499.915 -165.423 -494.338 68.3677 -5.22694 265.498 -244.845 579.329
111 1 -21.6671 -55.7657 -10.7533 741.836 1023.37 953.389 -72.9309 246.659 -232.934 -830.333 652.464
2605 1 -19.2399 -55.4798 -12.5287 834.186 901.393 857.828 -144.493 125.624 -0.430744 -826.919 336.846
114 2 -20.7188 -55.6135 -12.0052 -658.88 -553.947 -610.923 20.2074 -58.8661 70.4238 -252.685 186.488
109 1 -24.663 -55.5066 -11.7835 783.11 941.083 1203.3 33.2671 53.613 -326.474 -826.327 683.252
117 2 -23.1727 -55.5635 -11.2189 -420.95 -547.099 -641.396 -81.8108 -3.79369 68.0038 -252.964 265.889
120 2 -21.3491 -54.6446 -9.66396 -592.66 -368.11 -543.189 -36.1238 -89.6135 141.344 -252.778 360.142
215 2 -24.7009 -54.2682 -12.94 -543.771 -180.881 -313.775 -43.3773 24.5319 -173.548 -244.694 446.017
214 2 -23.3323 -53.8663 -8.1265 -342.258 -511.53 -513.956 48.9587 -257.54 55.686 -249.372 494.513
206 1 -21.8371 -53.5117 -8.64829 1002.49 1065.14 749.132 18.6888 43.235 -193.19 -829.315 450.124
208 1 -24.8266 -52.792 -13.5609 913.113 959.383 779.977 -83.2132 58.1333 -147.188 -841.832 349.187
2705 2 -20.9105 -53.5232 -7.35463 -692.851 -660.191 -621.517 -21.7148 -140.534 22.307 -250.064 256.87
2613 2 -18.3043 -55.1486 -11.2832 -391.24 -619.7 -367.19 46.1609 87.1033 46.6411 -255.959 306.507
5218 2 -13.3559 -52.7165 -0.418266 -275.541 -675.471 -506.315 -6.50806 -93.9797 78.0972 -241.047 407.22
5106 2 -10.3467 -55.5095 -12.0348 -305.787 -502.653 -441.99 -60.7173 -180.275 110.724 -250.858 419.321
5016 2 -11.5958 -59.6041 -9.65575 -577.847 -467.402 -548.443 103.691 12.8958 77.0091 -253.832 245.684
2520 2 -16.8014 -59.5754 -9.15972 -543.252 -74.4981 -649.93 42.5936 -35.1975 136.623 -238.815 588.449
5098 2 -12.9198 -58.6231 -13.7294 -276.7 -494.185 -523.771 -23.132 -112.603 59.6187 -254.825 323.907
5104 1 -14.417 -58.4862 -13.0387 1124.57 847.847 1055.71 -187.769 -93.2555 -97.8607 -825.231 472.074
2606 1 -17.1102 -58.093 -8.5807 899.119 832.126 1083.18 -71.5812 134.634 -25.2695 -850.729 349.803
5116 1 -14.2274 -58.0009 -7.43555 693.084 1078.21 921.713 16.436 224.925 -76.165 -850.49 531.533
5102 1 -11.6518 -58.1395 -9.0196 994.345 808.161 813.133 -9.23928 24.5914 -108.931 -836.252 267.268
5110 2 -13.1831 -57.9534 -8.56415 -562.553 -613.989 -712.945 30.4388 80.7328 20.3151 -246.402 202.729
5105 2 -15.7065 -57.6314 -7.89081 -313.284 -641.225 -629.025 64.6374 12.3806 39.8287 -236.693 348.491
5108 2 -11.3082 -56.9631 -10.0504 -586.58 -305.887 -446.444 0.972038 15.5148 -35.7694 -253.867 252.299
5107 2 -14.6077 -57.1139 -12.2329 -542.502 1.95115 -613.446 -2.68508 -22.1541 100.949 -250.603 610.044
2612 2 -17.3935 -56.989 -9.68941 -687.808 -158.286 -624.584 -8.72832 -54.8773 -28.5703 -241.861 512.469
5103 1 -11.453 -55.5608 -10.8307 922.654 1071.04 980.188 -18.5156 -52.5905 -166.277 -826.688 330.246
5101 1 -14.4675 -55.5198 -11.8166 866.817 899.638 1064.09 178.71 -8.84346 -117.769 -829.632 413.734
5109 2 -12.96 -55.3306 -11.317 -285.626 -533.75 -569.74 -137.698 4.46425 32.7757 -256.854 363.257
2607 1 -17.2205 -55.4242 -10.1262 1205.07 1037.42 855.642 -11.9965 -23.4111 -85.5747 -832.505 340.106
2610 2 -15.6667 -55.337 -10.7741 20.6697 -639.597 -508.901 16.7211 -194.292 -14.3779 -244.081 693.864
5112 2 -11.1867 -54.324 -9.7967 -609.742 -374.918 -331.591 3.10228 -31.4205 231.343 -247.67 480.357
2616 2 -17.2826 -54.4112 -8.91696 -621.946 -327.542 -510.132 63.316 48.7958 111.761 -251.271 350.569
5207 2 -14.695 -54.5336 -13.0556 -586.317 -365.928 -458.479 -3.47185 -2.81958 -47.9253 -256.474 209.022
5206 2 -13.1199 -53.4828 -8.17294 -198.507 -578.514 -406.606 -30.1207 -147.182 -4.13685 -249.169 419.991
5198 1 -11.5663 -53.3098 -8.62226 1066.91 1123.01 916.253 40.7646 -17.0276 -188.792 -837.096 383.509
5200 1 -14.7826 -53.0859 -13.7393 1017.55 890.011 715.406 -12.8934 -1.67072 -202.954 -819.71 439.431
2702 1 -17.1806 -53.2097 -7.84657 1012.59 1058.8 897.74 -34.1045 25.7202 -101.467 -845.912 238.735
5201 2 -15.6638 -53.2101 -7.27945 -170.418 -603.282 -556.46 -42.7973 12.4864 63.1088 -242.813 432.673
7601 2 -10.6453 -58.0551 -7.80107 -360.365 -605.782 -393.422 -31.1721 188.774 48.2528 -245.868 412.331
4924 1 -20.059 -67.829 -6.63283 816.19 1203.3 811.9 -63.3851 -88.5876 -2.54446 -806.916 432.604
2431 2 -24.7192 -67.5948 -5.64198 -815.215 -235.82 -389.223 178.378 -28.1154 322.113 -241.814 824.287
4927 2 -19.9406 -67.5667 -5.04106 -664.39 -409.552 -14.9992 136.147 18.1012 362.428 -244.055 878.53
2432 2 -22.9423 -66.8663 -1.04648 -552.543 -391.892 103.365 180.011 -402.669 -202.172 -259.776 1028.06
7332 2 -12.1361 -69.2468 -1.99808 -577.092 -177.917 -409.705 77.4946 55.1723 -88.0538 -120.742 413.462
7418 1 -12.4293 -68.4095 -0.744002 1119.46 1159.52 1413.83 -21.4515 207.325 217.755 -929.191 590.808
7423 2 -14.5787 -67.3285 -5.60088 -607.463 -334.567 -512.33 211.549 108.924 317.659 -235.402 728.103
4928 2 -16.1535 -67.2512 -1.25574 -432.495 -356.081 -95.0507 -123.416 196.284 -337.966 -224.151 773.215
7426 2 -13.9779 -68.6443 -0.383081 -363.898 -579.14 -780.073 82.2247 113.764 -145.226 -213.73 502.329
7424 2 -12.3255 -66.7947 -1.21992 -517.836 -536.685 -593.192 97.3106 -27.3172 -225.421 -210.79 433.249
7432 1 -15.2874 -67.8897 0.0541963 1208.22 1050.93 1233.45 -79.7017 159.843 -3.45508 -882.071 353.679
2518 2 -18.208 -63.9503 -6.93953 -384.585 -510.133 -252.376 48.0579 -328.205 86.4544 -248.601 634.308
2433 2 -23.3281 -66.4935 -3.62432 -452.325 -638.21 -238.759 -64.2459 109.093 26.8857 -244.353 412.452
2425 1 -24.6715 -66.4082 -4.5378 1328.61 1425.75 593.117 4.00085 216.869 -301.908 -838.774 1018.05
4929 2 -18.0338 -66.5857 -3.20157 -73.0472 -565.02 -211.967 -33.8657 311.869 51.8076 -234.369 704.465
2430 2 -20.7968 -66.3848 -2.87335 -84.7562 -596.726 -269.936 55.4398 -518.812 -74.8112 -240.649 1017.4
4921 1 -19.5158 -66.4225 -3.93679 1567.15 1223.73 919.546 19.6282 269.224 -232.317 -840.663 833.935
2427 1 -22.3378 -66.1014 -2.43178 1354.15 929.906 847.388 36.439 120.342 6.447 -838.283 518.992
35 2 -24.6746 -64.9235 -5.33712 -672.091 26.4852 -73.6938 14.2101 -191.266 -298.394 -244.169 897.514
2531 2 -19.5136 -65.0528 -4.88891 -641.263 -35.6687 -96.7912 -53.6302 -108.291 -295.067 -245.617 799.042
2436 2 -22.4233 -64.5249 -2.23889 -761.948 -493.481 -508.498 55.5678 -64.4032 -140.005 -249.408 385.718
28 1 -24.5997 -63.8891 -6.60692 1198.32 1059.65 965.854 181.317 171.528 -45.2062 -860.496 483.796
2524 1 -19.5298 -63.8208 -5.99419 1322.22 996.199 966.379 -18.9096 233.318 -177.239 -842.977 612.802
26 1 -22.4454 -62.9529 -2.15267 1079.02 715.135 934.089 -144.322 145.85 54.7169 -844.16 485.76
2536 1 -19.6896 -62.7499 -0.81539 1065.38 959.674 719.842 -155.34 -16.4177 -24.8815 -852.837 411.22
2530 2 -18.2565 -62.6493 -1.57871 -194.376 -658.435 -522.978 -3.06579 -30.5675 69.3956 -237.446 433.726
2525 2 -21.0296 -62.459 -1.64873 -490.32 -625.066 -622.553 24.1814 -109.282 14.2407 -243.044 236.673
31 2 -24.3874 -62.2868 -6.18928 -700.45 -42.5348 -527.242 62.8636 -54.3885 6.53428 -234.564 608.075
34 2 -23.6485 -62.5499 -1.16276 -429.23 -584.082 -405.302 50.7556 -197.54 36.597 -240.813 396.32
2527 2 -19.5616 -62.3632 -5.33148 -648.472 -384.791 -508.264 -55.6262 -121.326 86.4524 -249.236 357.883
32 2 -22.6591 -62.0573 -3.49453 -687.282 -31.0155 -554.216 40.3599 -131.195 -212.018 -235.829 743.265
25 1 -24.414 -60.7183 -5.84525 1151.66 948.482 604.998 139.107 140.761 90.7745 -849.116 609.315
2521 1 -19.4424 -60.8435 -4.92424 950.782 778.436 1062.47 39.067 189.181 -101.745 -849.491 452.137
27 1 -22.2367 -60.4813 -3.82858 996.856 1172.51 846.883 105.979 65.9819 18.0233 -833.936 356.959
30 2 -20.6632 -60.3996 -4.01165 -470.075 -582.917 -625.585 -63.7906 -93.3188 59.017 -247.485 261.057
33 2 -23.0194 -60.1852 -5.15524 -454.175 -648.962 -471.096 102.934 -20.772 198.605 -243.496 431.677
2627 2 -19.4805 -59.8536 -6.19378 -664.137 -245.914 -501.231 -84.5999 34.4731 -51.7386 -237.003 407.903
2543 2 -19.754 -64.2565 -0.292936 -709.422 -557.804 -459.44 55.488 -81.193 -205.281 -238.625 450.569
2529 2 -17.9615 -60.7004 -4.25394 -337.481 -591.919 -563.41 -76.2607 36.7766 40.9072 -237.036 291.243
4926 2 -15.5464 -66.0364 -3.65805 -683.132 -676.285 -204.636 151.46 -212.769 -136.512 -224.015 697.329