ITEM: TIMESTEP
1520000
ITEM: NUMBER OF ATOMS
29952
ITEM: BOX BOUNDS pp pp pp
-2.5615833775063237e+01 3.5601128117061187e+01
-1.1198170534230370e+02 1.2196699967650244e+02
-2.1035324467156940e+01 3.4903177627851115e+01
ITEM: ATOMS id type x y z v_StrAtomXX v_StrAtomYY v_StrAtomZZ v_StrAtomXY v_StrAtomXZ v_StrAtomYZ c_PEAtom v_VMS
4904 2 -18.3114 -68.6393 -16.0072 24.1898 -644.122 -440.766 -316.729 38.8289 -10.6116 -317.146 811.112
2400 2 -19.374 -68.7431 -18.4939 237.274 -600.608 -239.859 -161.82 488.174 -119.984 -270.958 1169.02
4901 2 -20.8416 -68.8176 -15.0782 172.089 -647.447 -472.514 -131.57 210.064 -79.4278 -285.771 872.993
4912 1 -19.341 -68.5791 -14.5535 380.268 921.586 1140.21 258.103 167.673 -103.272 -738.539 880.545
2316 2 -21.7867 -68.4556 -17.5637 -427.338 -568.484 -59.2986 -90.2496 -266.116 -245.641 -269.929 790.714
2494 2 -21.8115 -68.4934 -20.3334 1.22592 -390.434 164.452 -41.3775 729.189 -163.793 -258.378 1387.35
4900 1 -17.9711 -68.6589 -17.6095 909.728 797.353 859.473 120.835 -125.165 454.156 -762.455 847.986
4906 2 -18.2162 -69.536 -13.9498 119.721 -558.785 -723.94 -89.3589 -140.735 22.2228 -269.291 827.381
4896 2 -16.0432 -72.1508 -17.967 -301.674 -13.385 -495.64 53.2515 34.7621 6.43931 -171.546 434.636
7392 2 -11.8459 -71.6814 -15.1545 298.175 -484.84 -843.477 -120.239 36.7004 93.3709 -274.067 1046.96
4982 1 -15.6831 -70.9592 -17.1207 911.691 494.608 1627.07 134.082 2.12569 -46.261 -801.637 1021.99
7478 1 -10.5717 -70.7193 -15.13 215.757 396.803 1829.41 97.1266 -59.195 152.506 -721.832 1566.24
4812 2 -16.4611 -70.7197 -15.582 -386.239 -401.021 -764.632 -180.694 -157.45 27.1136 -258.614 558.869
7396 1 -13.0774 -70.6511 -15.381 351.949 278.55 1759.65 14.8119 -3.97184 -30.0828 -724.047 1446.98
7481 2 -14.1604 -70.7162 -16.5923 -2.47867 -161.503 -597.223 -100.605 515.771 -159.399 -281.66 1090.45
4990 2 -16.7273 -69.6602 -17.6808 231.652 -496.313 -599.285 -397.229 190.611 -107.244 -262.725 1110.12
7486 2 -11.7301 -69.6354 -15.7915 -97.0454 -309.106 -1182.9 -176.422 -76.1768 -64.0421 -310.876 1056.82
4898 1 -17.0089 -69.4192 -15.0381 241.975 920.067 1221.46 440.707 37.2885 -92.7362 -729.769 1169.47
7397 2 -15.8068 -68.4268 -14.6428 371.241 -517.996 -393.616 252.342 305.188 63.595 -284.621 1085.44
7399 2 -13.7671 -69.8231 -14.2519 -519.244 -343.907 -843.144 -242.923 -160.247 162.687 -283.159 725.203
7394 1 -11.6486 -67.9498 -15.6321 1077.13 341.639 1416.27 -66.0321 -123.48 435.431 -737.292 1238.15
7408 1 -14.2452 -68.3279 -13.9403 793.336 657.674 1043.28 200.33 353.254 -320.496 -764.448 957.965
220 1 -24.3331 -53.5677 -7.02217 949.284 879.01 970.944 19.5458 6.78324 151.176 -831.457 277.085
2410 2 -23.5803 -68.2686 -15.4786 338.707 -401.481 -629.508 -299.391 -198.562 -106.224 -282.269 1090.73
2486 1 -20.8865 -68.1924 -18.9319 1319.46 833.899 1205.28 154.982 -4.01416 131.855 -776.798 563.586
2402 1 -22.0196 -68.2105 -15.9827 628.214 880.395 1277.47 311.917 92.874 251.758 -772.821 910.658
2416 1 -25.049 -67.8917 -14.8949 546.877 935.174 1153.21 -169.293 -107.882 70.448 -752.772 647.116
2407 2 -23.5253 -66.7288 -20.1446 -559.997 -643.696 -93.7024 -40.7418 -162.114 72.6003 -268.029 602.578
4985 2 -20.5337 -66.605 -18.9857 -536.823 -74.8149 -516.071 122.799 -22.2381 -17.4492 -273.281 501.927
2408 2 -21.6266 -66.596 -16.0025 -454.141 -501.912 -813.434 46.1798 -180.697 -110.115 -265.171 504.915
2401 1 -24.1216 -65.7691 -19.0001 679.186 1232.47 639.218 58.8559 35.8344 170.136 -795.28 656.441
2409 2 -23.3098 -65.7137 -17.6639 -613.447 -683.073 -606.421 -30.6625 -223.979 -140.112 -275.953 466.477
2403 1 -22.1863 -65.3056 -16.6352 711.327 425.211 685.771 118.81 191.831 -39.0721 -791.487 482.212
4897 1 -20.1223 -65.028 -18.6836 684.285 984.651 965.197 -59.0143 169.19 565.143 -779.991 1067.35
4905 2 -18.5481 -65.0496 -18.2717 -537.162 -695.63 -737.878 162.605 -44.8427 -116.518 -265.208 399.594
2406 2 -21.0451 -64.536 -17.4573 -451.742 -503.773 -423.598 -37.7 -137.703 -32.0355 -269.955 263.045
2507 2 -20.1784 -64.1497 -19.9824 -516.139 -494.111 -375.886 147.355 -155.318 -197.76 -273.671 521.445
11 2 -24.2357 -64.3047 -19.7162 -422.122 -328.821 -369.684 -124.724 10.4331 -296.137 -260.456 562.715
2412 2 -22.7539 -64.2628 -15.6302 -631.046 -411.395 -767.114 -1.03932 37.1156 52.9078 -260.534 330.428
2506 2 -18.384 -63.3795 -15.3025 -466.57 -503.83 -480.835 17.3691 -187.869 38.8757 -251.764 335.236
2501 2 -20.8046 -62.7807 -14.6893 -388.186 -496.29 -706.214 25.7151 47.1651 92.1726 -248.703 335.549
2 1 -22.3895 -62.7779 -15.1167 982.781 584.482 932.551 119.853 193.943 -23.8336 -814.861 546.624
7 2 -24.2336 -61.817 -20.5295 -423.421 -525.197 -570.16 -121.369 -83.6383 63.4049 -260.6 306.911
2503 2 -19.748 -61.6375 -19.8427 -586.716 -455.811 -590.269 -47.5438 -87.6869 46.7315 -265.636 232.408
8 2 -22.5085 -61.7511 -16.2867 -653.717 -335.963 -613.524 26.9834 -83.3349 19.4631 -260.587 337.59
7308 2 -10.2516 -69.8347 -13.808 -567.682 -202.448 -754.95 169.102 213.857 419.485 -267.869 993.859
2512 1 -19.41 -63.2338 -14.0932 727.038 657.082 978.163 149.099 93.5305 -120.058 -828.653 470.854
7402 2 -13.0289 -67.6146 -14.721 301.136 -484.515 -775.347 -45.9133 -179.586 49.6593 -277.147 1020.2
4903 2 -17.4089 -67.1922 -17.889 -525.424 -533.33 -669.713 118.596 -12.9466 -150.397 -267.46 360.967
7400 2 -11.9752 -67.2738 -17.0399 -485.254 -306.4 -425.614 -40.2888 266.714 -359.404 -286.632 794.148
7401 2 -13.6839 -66.3304 -19.1093 23.4658 -611.824 -91.7163 43.8019 437.197 -165.108 -273.043 1002.32
7395 1 -12.2683 -66.1691 -18.1383 1004.2 1030.43 915.856 -27.4049 74.8228 666.417 -768.105 1167.13
7398 2 -11.0419 -66.2468 -19.1778 -362.92 -638.82 -480.457 -118.475 -174.662 -64.1066 -274.132 451.071
7393 1 -14.7965 -65.6234 -19.9968 853.253 921.04 749.026 -16.0982 4.0684 544.998 -774.974 956.253
4899 1 -17.178 -65.6214 -17.9221 280.991 615.607 1110.24 24.4503 8.49381 241.949 -799.083 836.518
4902 2 -16.0969 -65.3224 -19.0563 -325.052 -575.844 -460.317 -18.4234 -189.925 -175.412 -265.936 498.809
4908 2 -16.7228 -64.9456 -16.5323 -531.33 -338.185 -662.742 82.3579 -14.0284 2.13337 -261.101 317.66
7404 2 -12.4175 -64.7323 -17.2747 -388.697 11.9742 -145.223 -31.2011 -41.3342 264.868 -276.436 583.759
5003 2 -14.0743 -64.2559 -20.4405 -400.523 -491.612 -497.44 89.2756 -90.5452 -128.155 -286.266 326.556
4997 2 -15.8944 -63.4842 -14.6508 -631.753 -647.907 -654.765 -105.554 -132.96 -158.425 -256.563 402.708
5002 2 -13.3129 -63.5849 -14.9566 -380.734 -499.571 -381.964 -56.8717 -104.88 63.1379 -265.674 261.991
7493 2 -10.7542 -63.7076 -15.4686 -270.195 -435.095 -493.17 167.448 202.222 67.4952 -266.782 510.495
4994 1 -12.1982 -63.5843 -16.1302 788.859 797.354 1190.59 -19.3719 -47.5166 109.002 -800.437 448.991
2498 1 -16.8663 -63.4948 -15.9035 856.985 717.972 863.063 -32.5513 -11.6814 -68.7242 -808.674 194.843
2504 2 -16.6252 -62.3975 -17.0093 -530.856 -372.298 -505.025 -2.06679 31.2874 -99.5172 -264.457 233.18
5000 2 -12.2544 -62.078 -16.7693 -497.895 68.1972 -556.566 8.30522 50.3493 -158.738 -262.011 663.718
4999 2 -13.2903 -61.7522 -20.1415 -566.609 -464.811 -560.145 20.9069 19.3382 84.4604 -277.802 183.25
2499 1 -16.5713 -60.944 -17.7347 648.777 883.225 1057.5 73.7496 74.0168 172.841 -806.927 498.566
2500 1 -19.5292 -62.8731 -20.7749 655.575 865.367 784.305 -92.6685 109.436 -143.49 -781.245 396.279
2505 2 -18.0103 -60.6617 -18.2892 -237.72 -507.777 -665.511 -64.8591 -101.269 38.9449 -265.233 433.987
9 2 -23.1236 -60.626 -18.5652 -345.728 -534.566 -501.105 -49.8862 54.8045 -7.89394 -253.622 217.081
1 1 -24.3748 -60.5347 -19.6195 1012.92 587.159 844.391 25.3303 11.5215 57.1264 -819.964 387.347
6 2 -20.677 -60.5116 -17.7105 -335.875 -529.218 -564.706 18.5102 -156.464 -26.6687 -259.209 349.437
2497 1 -19.5333 -60.4201 -18.8092 821.975 859.818 1022.21 102.871 98.761 -161.399 -806.661 416.059
3 1 -22.2267 -60.4948 -17.2539 925.782 886.888 748.356 39.1788 130.467 -111.785 -818.659 345.325
107 2 -24.2175 -59.3058 -20.5475 -502.905 -802.955 -497.47 -39.4794 64.0385 -63.0338 -255.623 347.259
2603 2 -19.5695 -58.9985 -19.6196 -503.737 -181.484 -473.482 -61.3709 -27.6436 -141.019 -261.656 410.199
12 2 -22.4293 -59.1099 -16.5177 -584.193 -397.526 -307.914 101.382 24.1391 138.446 -256.41 386.895
98 1 -22.129 -58.2211 -15.1428 842.776 608.711 1038 34.5465 95.7672 35.4504 -809.103 416.481
2596 1 -19.595 -57.713 -20.5942 884.042 767.446 825.742 119.001 43.6395 -184.216 -812.319 400.249
103 2 -24.6439 -56.841 -20.3322 -580.674 -480.826 -277.249 -35.5525 78.0959 271.402 -242.614 561.076
104 2 -22.5696 -56.7851 -15.5712 -503.447 -710.599 -659.962 -80.5768 50.6841 -30.3114 -260.14 254.808
2599 2 -20.0715 -56.4445 -19.8037 -684.582 -555.748 -604.554 -4.51077 -91.6446 16.0298 -259.436 196.775
105 2 -23.565 -56.1033 -17.9424 -420.263 -473.259 -353.485 -94.005 124.462 56.6398 -260.183 305.637
2601 2 -18.4343 -56.05 -17.9528 -193.141 -468.681 -650.697 -140.861 -35.9906 -5.20288 -254.569 471.908
2593 1 -19.8587 -55.5955 -18.5004 859.061 638.852 995.411 37.9295 84.6284 -119.381 -819.959 407.02
97 1 -24.7232 -55.8357 -18.9945 938.412 1122.29 1103.19 177.577 -53.1594 -84.6194 -818.736 393.984
102 2 -21.0419 -55.8025 -17.4045 -394.294 -480.208 -464.43 -4.34003 -183.165 -23.3858 -257.954 329.575
99 1 -22.4964 -55.7651 -16.7568 895.645 720.332 936.38 152.974 66.4747 192.139 -817.128 483.474
203 2 -24.5287 -54.3775 -19.7177 -402.987 -242.16 -401.218 128.579 -150.752 -339.806 -253.515 699.831
2699 2 -19.7983 -54.082 -18.9977 -551.907 -435.014 -666.085 19.9583 -25.2803 -110.693 -254.892 282.698
108 2 -22.7083 -54.2692 -16.1853 -539.366 -294.253 -486.456 22.3688 14.8039 227.797 -254.171 455.789
2597 2 -20.6067 -58.4252 -14.7119 -333.304 -356.899 -392.561 -52.0449 239.344 72.3687 -264.085 445.38
2602 2 -17.9767 -58.7957 -14.796 -476.671 -523.772 -498.123 -65.3823 -215.724 11.3084 -249.737 393.049
2502 2 -15.367 -60.9889 -18.7802 -220.25 -454.719 -546.332 -61.4609 -140.336 19.2951 -271.021 395.45
4995 1 -12.0384 -60.4823 -17.08 1025.75 986.004 879.889 -76.3791 -30.9492 -230.788 -804.476 444.096
4993 1 -13.9562 -60.515 -19.4367 855.786 644.808 716.899 95.5564 -55.2929 -183.731 -790.825 415.133
5001 2 -13.011 -59.9883 -18.3067 -325.354 -530.456 -505.849 -46.0043 116.075 -102.747 -266.345 340.684
2508 2 -16.3099 -59.8375 -16.5425 -509.648 -269.955 -291.249 -89.6493 -62.1534 243.931 -254.206 516.729
5004 2 -12.2348 -59.5801 -15.8152 -622.84 -336.019 -425.207 49.7875 87.6112 218.898 -256.004 488.725
5099 2 -14.1662 -59.3376 -20.5098 -502.749 -631.221 -674.004 -47.0542 -98.957 9.17325 -266.871 245.161
2594 1 -16.6089 -58.5809 -15.55 825.018 1023.18 905.428 115.27 16.0095 -133.818 -832.991 352.353
5090 1 -11.9698 -58.2947 -14.8239 873.676 913.516 1009.83 102.114 -178.019 -45.5645 -829.581 383.774
2600 2 -16.5476 -57.2498 -16.4773 -489.601 -273.334 -369.609 18.6939 -25.3269 -143.329 -255.998 315.945
5096 2 -12.3251 -56.9849 -15.6234 -676.092 -498.115 -629.791 -27.605 45.7851 84.7668 -251.968 236.03
5095 2 -13.7207 -56.8812 -20.1993 -558.238 -513.805 -730.848 -64.2084 -32.3538 26.5004 -251.572 238.859
2598 2 -15.7977 -56.1447 -18.7851 -386.629 -431.139 -513.475 55.7257 -256.276 -29.7543 -256.415 470.563
2595 1 -16.8392 -56.0642 -17.5369 1015.14 650.476 1231.14 -20.3224 92.8645 -138.754 -824.337 585.896
5097 2 -13.4654 -55.9952 -17.7995 -498.543 -532.894 -508.564 -15.8317 110.287 28.5298 -247.835 201.544
5091 1 -12.4015 -55.7802 -16.6255 1123.17 680.165 982.449 -17.1533 -81.6754 -1.15261 -836.211 417.872
5094 2 -10.9165 -55.7175 -17.3568 -333.655 -498.843 -586.99 18.043 -128.227 61.202 -246.064 333.404
5089 1 -14.2859 -55.8374 -19.179 914.157 737.549 885.96 -15.8536 41.1117 -203.385 -829.157 396.14
2604 2 -16.6302 -54.6269 -16.9285 -693.737 -205.705 -680.897 -32.2157 -52.2477 35.4389 -248.208 497.136
5100 2 -12.5905 -54.3412 -15.9365 -547.222 -66.0506 -617.779 119.27 71.4291 128.603 -248.513 614.86
5195 2 -14.0172 -54.3607 -19.757 -504.322 -164.726 -438.552 177.372 -77.84 -185.292 -249.17 559.353
5093 2 -15.5094 -58.4796 -14.3934 -492.163 -682.954 -532.386 -41.608 84.8549 -8.09892 -241.54 239.45
7589 2 -10.4296 -58.2639 -14.4918 -447.576 -663.222 -594.502 -5.07637 -10.873 80.7252 -249.774 237.462
5129 2 -15.7463 -58.1483 5.98771 -337.359 -692.899 -527.796 39.7989 41.4297 53.6652 -239.764 336.909
4913 2 -20.8523 -69.1123 -7.41144 -124.507 -800.638 -132.382 147.601 293.434 -85.1276 -234.618 892.916
7409 2 -15.923 -68.7884 -7.58003 19.9532 -821.188 -434.586 1.53159 60.0797 -45.5258 -243.656 740.841
9905 2 -10.4772 -68.7766 -7.52389 153.953 -553.588 -380.207 183.212 372.567 72.9952 -234.154 970.105
10 2 -23.3479 -62.4844 -13.9075 -587.282 -548.18 -626.915 -37.1098 -110.764 -11.3504 -256.718 214.414
2422 2 -23.5256 -68.2098 -7.954 186.88 -352.07 -691.46 -40.0974 -155.785 -41.58 -256.033 819.381
2414 1 -21.9034 -68.0734 -8.12129 885.194 1031.92 831.405 -144.434 8.85974 16.7609 -806.299 309.797
2328 2 -21.7452 -67.5468 -9.63329 -684.508 -580.974 -299.99 -79.9037 4.85401 -240.911 -250.541 558.66
4915 2 -19.2169 -67.1784 -13.8622 -533.393 -381.989 -294.759 53.2486 -56.5852 311.005 -272.734 593.316
2419 2 -24.8465 -66.9901 -13.5914 -421.798 -385.731 131.413 30.9423 139.905 249.054 -275.245 731.483
2421 2 -23.073 -66.2698 -11.5751 -155.901 -520.11 -284.854 -6.15795 284.226 60.1593 -251.286 596.352
2418 2 -20.4886 -66.3928 -11.6908 -434.632 -525.03 -355.097 -67.5412 -227.022 90.9813 -255.716 463.489
2415 1 -21.7495 -66.3196 -10.6396 1055.9 880.482 725.603 41.0584 114.745 13.444 -829.03 356.409
2413 1 -24.582 -66.0268 -12.2422 1050.71 932.84 955.405 63.8839 149.533 0.00277943 -815.798 301.772
4909 1 -19.3212 -66.0081 -12.6919 1015.71 627.572 957.406 128.644 145.536 -10.697 -810.153 494.93
2424 2 -21.6254 -65.1075 -9.65437 -533.111 -602.003 -179.762 -58.2054 -16.8467 217.619 -250.266 554.107
2519 2 -19.6287 -64.6909 -13.4722 -548.612 -580.923 -648.632 -12.271 -28.548 36.4 -255.584 121.193
23 2 -24.576 -64.5277 -12.8077 -559.733 -188.439 -539.695 -46.753 14.7089 -45.7536 -256.597 379.878
22 2 -23.2073 -64.2899 -7.66701 -200.854 -523.248 -330.464 -2.29947 -286.288 -13.4347 -245.477 570.43
14 1 -21.7394 -64.0428 -8.3628 1238.12 940.824 1005.29 231.485 30.5123 12.8524 -836.559 487.255
16 1 -24.7508 -63.0085 -13.3791 929.586 924.287 921.098 -40.4577 103.425 -188.483 -818.72 378.99
20 2 -21.616 -62.5956 -9.02388 -606.888 -233.661 -473.304 0.783066 -111.773 -103.499 -250.039 420.599
2515 2 -19.0164 -62.1906 -12.9918 -642.911 -485.489 -614.251 -159.574 -151.589 80.6963 -251.167 431.227
21 2 -23.4212 -61.2958 -10.5086 -326.869 -627.809 -490.054 -214.545 43.6509 -32.8233 -245.869 463.812
18 2 -20.8996 -61.4824 -11.3254 -459.655 -429.095 -368.562 115.481 -221.284 -46.3293 -253.529 446.984
15 1 -21.8912 -61.3658 -10.0528 968.809 816.249 1026.94 -80.3076 126.13 -119.801 -832.216 381.646
2517 2 -18.4019 -61.1337 -10.7119 -431.344 -550.386 -469.499 -131.692 146.048 34.1213 -244.998 361.381
2509 1 -19.4686 -61.0648 -11.9446 1173.44 762.053 839.814 132.979 79.3215 -196.23 -826.33 575.104
13 1 -24.8626 -60.8645 -11.1604 949.411 1060.24 734.762 128.895 292.535 -138.276 -829.116 667.891
2420 2 -21.1592 -67.055 -7.15425 -97.5745 -1005.29 -445.779 -29.467 66.4603 -117.092 -235.109 828.32
4918 2 -18.4608 -67.8845 -7.266 -84.0484 -388.475 -696.805 75.0957 -216.825 -6.81555 -268.602 663.102
2428 1 -24.9822 -68.231 -7.19945 1013.68 1188.83 844.903 36.5018 -33.335 -17.63 -808.461 311.429
19 2 -25.2466 -62.0027 -12.2154 -665.356 -267.27 -400.127 -48.4684 -38.3576 195.785 -254.982 499.692
4917 2 -17.9669 -65.8376 -11.7875 -280.909 -424.064 -101.669 -52.7328 257.91 81.2228 -263.712 553.141
7414 2 -13.2552 -67.8594 -7.91936 310.257 -395.673 -742.359 -63.9622 -134.799 -22.808 -267.18 965.199
7406 1 -11.6392 -67.7747 -8.11362 653.502 1237.53 1026.06 -237.544 -133.137 89.5074 -802.569 713.3
4910 1 -17.0117 -67.6698 -7.93395 501.444 1219.45 1030.98 162.942 196.784 29.3603 -796.008 783.67
7411 2 -14.2301 -67.5879 -12.5662 -513.214 -254.398 -594.105 -87.5672 32.5076 296.969 -267.478 620.653
5008 1 -14.5298 -63.6674 -13.9352 766.182 1057.13 730.364 93.0059 -98.0179 141.145 -819.294 459.234
7320 2 -11.3775 -67.2707 -9.59032 -565.483 -448.401 -440.062 19.3929 -34.3468 -212.838 -255.454 394.108
4824 2 -17.3144 -67.2531 -9.49214 -540.795 -535.483 -20.8224 -118.194 -10.3837 -282.091 -257.469 740.673
4916 2 -15.8417 -66.6415 -7.44111 91.7591 -857.372 -586.34 -153.528 -122.328 8.68578 -234.583 912.631
7405 1 -14.3021 -66.0964 -11.9007 533.76 936.234 897.385 -46.7084 161.815 -238.429 -814.514 635.218
7413 2 -12.9258 -65.8408 -11.1972 -443.756 -569.358 -467.719 -28.3888 142.433 49.1617 -255.119 289.603
7407 1 -11.4497 -65.9304 -10.4974 812.156 1142.45 845.927 -29.1037 234.483 -61.2884 -823.022 527.101
4914 2 -15.4785 -65.9235 -10.9127 -359.047 -511.047 -585.205 4.47898 -133.075 64.3881 -258.923 324.807
4911 1 -17.0546 -65.9595 -10.4234 1101.95 1081.51 896.433 86.474 147.744 -72.9488 -809.346 377.276
5015 2 -14.5193 -65.0543 -13.1397 -575.304 -270.337 -492.983 34.0369 -31.1629 -72.7906 -257.955 311.385
4920 2 -17.3307 -64.7629 -9.36348 -590.204 -336.973 -265.248 18.5415 -64.097 317.871 -252.226 635.544
7416 2 -11.1579 -64.6903 -9.45267 -513.195 -383.62 -440.94 60.8922 124.499 396.872 -241.088 736.746
5014 2 -12.8922 -64.1486 -7.67143 -299.069 -463.738 -658.481 281.92 -100.213 -8.379 -241.689 604.883
2510 1 -17.1004 -63.7494 -8.09458 1121.72 976.279 905.234 -63.7416 326.454 -81.7791 -840.213 623.301
5009 2 -15.5321 -63.7245 -7.63659 -252.537 -732.939 -532.209 -6.80639 44.3133 120.15 -238.594 473.271
5006 1 -11.4224 -63.6377 -8.24888 1048.81 1102.61 1140.56 129.387 -32.5903 -315.128 -848.959 598.083
5012 2 -11.4072 -62.2171 -9.03794 -488.367 -326.414 -526.083 94.0327 -80.011 -145.917 -247.383 378.638
5011 2 -14.5013 -62.386 -12.8591 -573.153 -64.9758 -208.97 -99.0741 -194.553 344.802 -246.97 839.922
2516 2 -17.4092 -62.2399 -8.55426 -636.499 -132.634 -421.383 77.303 -139.044 -95.6096 -248.849 543.246
2514 2 -15.8432 -61.4545 -10.5906 -353.975 -563.473 -330.438 -13.9611 -274.672 127.239 -248.271 569.967
5013 2 -13.1877 -61.3625 -10.8323 -266.28 -551.316 -522.258 37.1233 198.266 52.171 -240.937 451.703
5010 2 -10.706 -61.6768 -11.47 -489.756 -465.541 -526.217 93.9299 -125.431 40.6087 -244.268 285.329
5005 1 -14.5934 -61.3045 -11.619 1020.71 1028.79 1230.9 -84.9973 21.0756 -107.238 -838.617 316.311
2511 1 -17.1527 -61.1206 -9.71431 1037.96 945.92 1063.53 145.279 -11.7757 -186.295 -839.21 423.474
5007 1 -11.659 -61.2264 -10.2614 928.548 704.544 1039.2 -115.802 136.005 -162.058 -840.877 511.583
7412 2 -10.9003 -66.6456 -7.14305 21.2155 -720.449 -578.129 123.442 196.846 98.5812 -230.67 809.865
7420 1 -14.6671 -67.8387 -7.14829 632.096 1279.78 1079.08 6.55339 70.7862 -96.3817 -799.228 610.588
7505 2 -10.3174 -63.5772 -7.08659 -368.27 -683.858 -342.94 -110.9 215.872 83.9557 -234.579 553.241
238 2 -23.1187 -53.649 5.84402 -278.474 -603.121 -231.694 25.2482 -351.896 -34.1244 -242.915 706.873
106 2 -23.0123 -58.6583 -13.9018 -373.658 -533.628 -398.348 -9.0253 -131.031 161.089 -258.779 389.681
2615 2 -19.3071 -59.6845 -12.7209 -523.303 -429.631 -394.397 6.75477 -38.5897 -127.131 -257.248 257.697
24 2 -21.7106 -59.8739 -9.52402 -672.234 -45.6085 -506.114 -78.4292 -140.227 8.21531 -253.817 627.54
119 2 -24.5586 -59.4182 -11.8913 -616.784 -276.958 -646.666 93.7774 -127.833 41.6172 -250.096 455.117
2711 2 -19.035 -54.6324 -13.8135 -633.946 -226.445 -563.067 116.144 -121.008 -80.2191 -246.233 495.884
112 1 -24.4237 -58.45 -13.1021 974.423 808.134 730.571 -75.9529 19.2468 -19.615 -827.029 257.173
2608 1 -19.2377 -58.4907 -13.8041 1025.63 651.695 1090.1 65.996 198.087 -173.796 -819.955 624.09
124 1 -24.5475 -58.2736 -7.44327 836.738 1064.96 989.678 89.5984 78.3539 -129.689 -832.945 365.418
110 1 -21.8517 -58.2969 -9.06458 1023.12 1240.85 863.214 -53.3962 73.0926 -63.6333 -823.208 380.161
2609 2 -20.8118 -57.9576 -7.92812 -481.478 -526.248 -265.296 -9.9091 142.01 7.32775 -252.014 345.505
118 2 -23.3713 -58.0562 -8.51728 -231.943 -571.606 -448.356 -91.2594 -181.665 83.6375 -249.626 483.4
2614 2 -18.2912 -57.9871 -7.64079 -638.581 -614.973 -450.809 67.5364 -83.6361 93.7421 -254.87 303.997
116 2 -21.7211 -57.1257 -10.2359 -642.925 -379.744 -428.598 37.6399 -41.4949 -103.761 -249.742 317.03
115 2 -24.5943 -56.8958 -12.7203 -528.681 -368.054 -542.744 -165.369 -106.577 84.7356 -254.525 407.326
2611 2 -18.8967 -57.1554 -13.0733 -475.137 -490.655 -489.542 -9.89234 -6.28017 192.994 -256.279 335.227
111 1 -21.6815 -55.6841 -10.8357 649.462 693.093 742.586 112.648 98.0945 -135.197 -832.29 358.167
2605 1 -19.2487 -55.6391 -12.5578 737.943 864.204 840.384 -64.6566 60.8812 -50.8973 -821.269 211.977
114 2 -20.6976 -55.5254 -12.0469 -798.554 -474.869 -688.375 -39.9014 114.166 47.7121 -261.15 363.256
109 1 -24.5696 -55.446 -12.047 995.665 731.426 1057.89 69.6286 -1.14511 88.4301 -828.509 357.972
117 2 -23.1524 -55.3531 -11.2613 -473.708 -619.23 -646.855 49.9115 -23.3274 125.821 -246.105 287.33
120 2 -21.2403 -54.6574 -9.70555 -716.851 -310.688 -406.458 -102.572 -5.40707 222.525 -251.046 561.645
215 2 -24.607 -54.2505 -13.0594 -608.474 -441.353 -585.11 -111.027 65.7284 7.6301 -255.037 273.289
214 2 -23.1377 -53.8379 -8.1091 3.98661 -525.672 -407.639 33.1128 -267.904 -13.6591 -247.675 671.655
2613 2 -18.1956 -55.1451 -11.4764 -364.706 -532.25 -499.528 51.2244 131.233 34.0459 -248.441 294.406
2705 2 -20.6475 -53.5409 -7.27093 -422.746 -625.387 -76.1839 -52.852 172.726 -79.1426 -253.967 589.975
131 2 -24.6725 -59.8584 -7.08405 -564.241 -87.925 -400.055 -67.4353 -92.1313 -237.481 -247.655 619.619
206 1 -21.594 -53.4758 -8.63243 1230.84 1258.45 918.686 152.715 3.39841 -75.9041 -817.702 440.576
5132 2 -11.6766 -56.8201 3.57807 -546.822 -417.522 -455.986 -1.57178 -3.81748 -126.241 -242.277 247.156
7601 2 -10.5256 -57.9698 -8.20394 -347.271 -596.005 -382.079 -0.116594 106.709 87.0509 -250.856 333.641
5111 2 -14.7502 -59.7835 -12.2402 -592.559 -3.02645 -535.5 -8.95181 25.5431 -27.8775 -245.263 567.182
5016 2 -11.488 -59.6815 -9.99428 -601.351 -405.615 -540.877 -59.1015 -39.3752 84.2631 -251.857 258
2520 2 -16.9621 -59.5625 -9.23592 -561.967 -40.2558 -604.677 -27.1616 -43.5037 96.4423 -243.514 576.267
5098 2 -13.0115 -58.3937 -13.5582 -191.364 -591.002 -401.932 -4.81623 -196.632 129.694 -247.57 535.184
5104 1 -14.5663 -58.4301 -13.0992 1062.8 904.857 888.158 -47.3519 51.7676 -309.262 -841.938 574.073
2606 1 -17.0623 -58.0586 -8.62628 751.142 972.641 1070.05 -82.8804 85.1069 -73.5306 -834.178 372.401
5116 1 -14.1586 -58.2299 -7.54092 627.283 1205.35 980.644 -14.1332 -71.4123 34.2798 -838.699 523.622
5102 1 -11.6077 -58.2023 -9.36779 1045.19 813.62 856.388 85.4533 57.234 28.6078 -832.582 282.378
5110 2 -13.1117 -58.0941 -8.75071 -252.601 -663.223 -395.903 -61.9 -112.385 135.407 -248.189 484.452
5105 2 -15.6315 -57.8827 -7.91675 -463.175 -657.272 -694.823 -61.6991 -56.6849 -56.2097 -246.044 277.328
5108 2 -11.4079 -57.0657 -10.4331 -586.344 -718.736 -675.525 42.1148 -59.4825 84.0976 -250.492 225.448
5107 2 -14.9739 -57.0194 -12.495 -642.085 -460.987 -709.443 -139.219 -66.8827 19.8071 -245.949 349.678
2612 2 -17.2078 -56.919 -9.76862 -518.406 -389.951 -464.664 13.0639 37.9054 -96.5766 -250.736 212.812
5103 1 -11.5923 -55.682 -11.1292 705.883 680.439 927.409 5.46051 22.8529 -140.242 -841.59 340.613
5101 1 -14.6964 -55.5447 -12.0141 1013.92 739.746 1072.16 -0.608817 137.922 -86.3203 -834.96 417.078
5109 2 -13.0687 -55.5509 -11.6934 -220.855 -571.789 -688.654 -92.1014 -110.112 6.62909 -240.991 489.671
2607 1 -17.1214 -55.3928 -10.2496 799.017 1001.93 732.195 -51.4743 165.152 -202.16 -832.252 521.131
2610 2 -15.7008 -55.1349 -10.8528 -480.075 -617.227 -588.985 -47.6802 -93.6366 54.4306 -253.737 240.305
5112 2 -11.5116 -54.5771 -10.0338 -617.611 -706.492 -754.264 -48.3061 -100.996 -73.4468 -248.539 261.175
2616 2 -17.4526 -54.464 -9.03482 -622.865 -535.314 -362.874 -3.8669 -12.6557 184.887 -250.823 394.427
5207 2 -14.8495 -54.5034 -13.2393 -580.706 -319.378 -501.294 105.212 -83.4045 -155.589 -242.359 424.909
5206 2 -13.1554 -53.8195 -8.10978 -377.698 -592.296 -328.425 -0.604902 -274.629 48.1789 -239.922 540.631
5140 1 -14.1904 -58.2053 6.46017 819.487 1172.09 705.615 -34.6819 203.45 -1.0486 -854.804 552.484
2634 2 -15.7895 -55.3127 2.77994 -223.616 -636.914 -457.658 69.588 -198.719 -10.5947 -234.98 512.049
27462 2 -25.7219 -60.4646 -18.7181 -395.661 -540.327 -354.702 -67.6848 -216.118 80.6013 -255.493 449.317
7332 2 -11.95 -69.3127 -1.97997 -525.527 -253.181 -405.229 13.4502 13.8302 -117.616 -123.701 313.844
7418 1 -12.3683 -68.5447 -0.719763 1295.63 1113.18 1323.4 36.5202 -140.361 252.659 -928.65 541.976
7426 2 -14.0058 -68.5958 -0.480089 -70.4475 -556.98 -770.016 -55.4121 105.339 -221.08 -211.175 758.206
2513 2 -20.5718 -64.0351 -7.2684 -447.991 -694.67 -266.154 -67.2986 109.09 134.765 -244.719 492.488
5130 2 -10.5522 -55.1919 1.88235 -266.865 -610.652 -493.614 -120.208 -63.3526 54.7964 -244.452 395.031
2518 2 -18.0482 -64.2053 -6.92342 -697.327 -541.12 -513.644 94.1199 -167.026 88.4806 -250.307 403.983
4924 1 -19.8943 -68.0249 -6.61628 953.634 1122.8 898.248 -131.413 120.443 54.2726 -799.823 381.073
2431 2 -24.5708 -67.8632 -5.71043 -723.718 -427.004 -344.161 143.655 92.5044 283.911 -252.987 669.986
4927 2 -19.7044 -67.7547 -5.02747 -687.008 -473.049 -94.8108 89.2834 -15.4606 338.35 -247.812 798.651
2432 2 -22.8747 -66.8629 -1.08285 -616.454 -415.82 -129.216 254.122 -355.328 -95.2418 -263.904 882.961
2433 2 -23.4023 -66.3945 -3.65722 -487.958 -617.303 -297.603 24.1571 66.3341 77.713 -248.492 332.65
2425 1 -24.6285 -66.6417 -4.67764 1252.74 1141.9 708.727 94.731 117.368 -261.815 -833.224 722.373
4929 2 -18.2214 -66.6365 -3.02906 -287.311 -507.431 -297.018 5.40272 281.167 14.2922 -237.614 533.175
2430 2 -20.8717 -66.5646 -2.96944 -342.862 -481.657 -356.223 53.9353 -392.814 16.2313 -251.157 700.01
4921 1 -19.6119 -66.5703 -3.93967 1181.7 1112.78 974.669 -63.6943 314.968 -347.915 -835.078 840.394
2427 1 -22.3637 -66.123 -2.4609 1260.61 834.324 925.376 -172.205 242.377 -40.1548 -830.799 649.026
35 2 -24.6172 -65.266 -5.63516 -702.65 58.135 -346.035 -9.23607 -197.748 -250.982 -242.456 860.933
2531 2 -19.5563 -65.2735 -5.01496 -572.148 -84.5967 14.3243 11.9827 -125.909 -302.933 -250.949 786.776
2436 2 -22.4408 -64.5322 -2.30379 -654.495 -325.426 -617.603 -64.9479 -139.29 -52.0881 -249.965 420.126
28 1 -24.5027 -64.0347 -6.70129 1194.18 1007.71 948.559 133.345 93.8284 -75.8239 -843.97 382.498
2524 1 -19.4061 -64.0552 -6.12768 1136.99 1091.61 922.992 -36.6413 299.073 -227.031 -834.724 682.008
26 1 -22.5065 -62.9441 -2.15663 1128.14 766.593 901.328 -79.5919 196.972 227.176 -828.667 624.804
2536 1 -19.6951 -62.8968 -0.799815 1030.34 892.122 852.826 -111.024 96.9837 -64.9425 -841.926 322.379
2530 2 -18.4296 -62.6794 -1.77489 -105.515 -608.522 -499.463 85.2403 -161.045 72.6435 -244.772 570.516
2525 2 -21.1214 -62.478 -1.44241 -256.781 -552.115 -481.014 16.2208 64.3198 42.1981 -249.106 299.702
31 2 -24.2949 -62.5046 -6.2455 -730.765 -180.71 -620.782 26.0821 -23.4564 -155.793 -247.355 575.036
34 2 -23.8059 -62.5341 -1.31004 -338.273 -571.651 -379.761 46.7303 -228.763 17.5076 -248.225 459.318
2527 2 -19.4639 -62.5181 -5.55511 -602.909 -24.3964 -620.276 -40.3732 -100.287 0.359305 -249.786 616.513
32 2 -22.5294 -62.1938 -3.56613 -741.327 -500.527 -537.331 -18.6416 -100.827 -18.0484 -249.087 288.087
25 1 -24.3943 -60.9547 -5.87062 934.506 1057.95 851.244 81.9504 117.574 -137.672 -832.787 388.494
2521 1 -19.4157 -60.9717 -5.16409 836.113 894.218 1281.96 39.0828 196.415 -123.38 -837.263 585.006
2543 2 -19.8039 -64.3926 -0.313451 -697.738 -648.01 -524.946 8.13344 -152.721 -158.486 -243.591 411.413
40 1 -24.9339 -63.0813 -0.251679 1122.92 838.335 770.945 47.741 -35.3979 -13.7391 -832.893 340.403
2529 2 -17.9716 -60.6541 -4.46156 -380.9 -513.373 -514.545 63.0625 245.396 70.8844 -239.654 474.729
7423 2 -14.3031 -67.5083 -5.62452 -626.819 -602.539 -318.914 139.719 -78.9137 393.115 -237.956 792.959
4928 2 -16.2281 -67.1657 -1.24683 -484.939 -357.617 -192.582 -86.9995 135.396 -226.539 -237.554 544.172
7424 2 -12.0436 -66.9315 -1.14899 -592.604 -560.779 -626.318 124.577 51.8427 -202.357 -205.398 425.074
4926 2 -15.7721 -66.3261 -3.70864 -702.618 -585.56 -300.024 18.3691 -203.112 121.007 -236.421 545.309
4923 1 -16.7716 -66.2093 -2.46803 1087.24 992.456 960.806 -50.343 66.0912 -18.1123 -859.12 186.217
7425 2 -13.2577 -66.2531 -3.47064 -273.394 -728.414 -125.126 23.7995 218.514 35.7628 -224.41 667.288
7417 1 -14.4385 -66.2782 -4.5942 1172.84 1272.52 803.84 -148.52 250.922 -432.532 -866.463 999.595
7419 1 -12.0028 -66.0375 -2.40345 1207.05 1211.06 940.707 -176.352 177.481 60.6778 -895.883 520.45
7422 2 -10.5355 -66.1505 -3.12272 -465.664 -812.01 -596.378 38.1541 -76.2842 129.102 -214.555 404.471
5027 2 -14.3627 -64.9913 -5.60807 -622.119 -300.67 -235.752 58.67 -180.964 -230.283 -232.334 629.343
4932 2 -16.8614 -64.6973 -1.95282 -638.784 -407.763 -554.675 17.2104 -55.8949 -32.0163 -242.725 233.132
7428 2 -12.0984 -64.4568 -2.00618 -582.216 -576.086 -624.422 111.521 21.7981 77.7849 -222.513 242.827
5020 1 -14.1761 -63.8673 -6.81355 836.286 1102.2 1168.45 -51.081 179.484 -266.919 -859.761 641.035
2522 1 -16.8552 -63.1047 -1.99872 1189.46 801.002 1110.48 -127.05 172.687 -43.9402 -843.366 519.748
5018 1 -11.8917 -62.954 -1.61697 957.788 1025.5 1092.37 -58.0247 -47.484 -58.7463 -879.953 201.997
7517 2 -10.4869 -62.7698 -0.830217 -401.061 -675.329 -555.763 6.46211 176.762 40.1508 -229.699 394.236
5021 2 -15.8521 -62.6597 -0.774824 -211.197 -595.72 -292.55 18.0579 268.324 31.0401 -237.268 585.711
2528 2 -16.3677 -62.3942 -3.34117 -603.322 -166.747 -443.227 136.563 -69.8027 -138.319 -245.918 523.733
5023 2 -13.92 -62.368 -6.20158 -602.664 -116.474 -571.411 134.259 -65.434 186.96 -236.7 627.651
5024 2 -11.8526 -61.975 -2.9197 -629.548 -461.062 -421.161 -39.5683 43.0874 -164.994 -223.542 358.661
2523 1 -16.4766 -60.849 -3.90853 933.891 1084.01 929.848 -189.317 125.498 -128.387 -840.472 476.846