ITEM: TIMESTEP
520000
ITEM: NUMBER OF ATOMS
29952
ITEM: BOX BOUNDS pp pp pp
-2.5615833775063237e+01 3.5601128117061187e+01
-7.8750355197586956e+01 8.8735649531785683e+01
-2.1035324467156940e+01 3.4903177627851115e+01
ITEM: ATOMS id type x y z v_StrAtomXX v_StrAtomYY v_StrAtomZZ v_StrAtomXY v_StrAtomXZ v_StrAtomYZ c_PEAtom v_VMS
2400 2 -19.6422 -66.7378 -18.4189 168.291 -446.122 -324.928 -34.3589 429.047 19.6143 -286.542 935.237
2316 2 -22.0448 -66.227 -17.6136 -386.385 -516.014 -318.557 -50.7703 -252.604 -112.124 -261.949 516.79
2486 1 -21.0695 -66.1381 -18.9574 1047.83 701.478 1230.39 35.8805 -132.474 -141.741 -781.635 577.325
4901 2 -21.033 -66.2829 -15.1907 61.4779 -467.1 -558.329 -79.682 37.7974 -46.3651 -289.773 604.749
2410 2 -23.784 -65.8986 -15.6971 254.332 -495.843 -775.866 -202.69 15.6802 -175.613 -279.895 1033.32
2402 1 -22.2553 -65.7389 -16.0939 300.431 824.998 1186.93 230.986 258.137 213.111 -781.988 1045.11
2494 2 -21.9843 -66.269 -20.2916 -125.662 -663.446 -184.325 -198.097 520.725 -275.931 -252.498 1191.94
4912 1 -19.5594 -66.2488 -14.6236 350.619 709.286 1167.62 346.06 101.432 -58.3773 -752.667 950.506
2416 1 -25.2806 -65.5848 -15.1381 500.852 957.912 1258.87 -292.443 -118.593 61.9628 -748.779 864.474
4904 2 -18.4291 -66.3759 -15.9231 -86.792 -539.014 -390.448 -449.327 160.403 174.372 -303.007 966.168
4906 2 -18.6339 -67.401 -14.0763 63.3148 -726.542 -1134.14 -116.054 -0.679871 113.61 -251.254 1091.37
4900 1 -18.2236 -66.4628 -17.6589 1090.71 661.165 1182.87 181.031 -23.5048 423.269 -743.469 932.755
4896 2 -16.2905 -69.9753 -18.0002 -308.468 -14.8856 -613.48 -59.2132 29.6411 -52.1032 -167.795 538.579
7392 2 -12.1101 -69.654 -15.4202 375.041 -411.968 -990.443 -215.205 27.3095 95.8254 -266.721 1256.19
4990 2 -16.8983 -67.4468 -17.6149 104.994 -464.108 -728.856 -377.79 166.335 -75.0131 -265.561 1035.71
7481 2 -14.5245 -68.4851 -16.6183 27.031 -154.644 -902.471 -129.628 331.539 -134.245 -270.927 1078.12
4812 2 -16.839 -68.7044 -15.6204 -459.256 -205.743 -773.724 -269.345 -61.9673 154.683 -252.539 737.442
7396 1 -13.3545 -68.6146 -15.5772 448.412 192.649 1966.62 74.2166 -20.5309 -121.755 -738.812 1679.57
4982 1 -16.105 -68.7876 -17.1142 773.268 351.67 1577.24 413.842 -86.3164 -90.3117 -823.769 1312.89
4898 1 -17.2961 -67.3572 -14.9304 364.519 892.594 1278.28 342.354 -94.0038 -115.903 -748.282 1024.56
7486 2 -11.8981 -67.6211 -16.1556 82.6068 -155.989 -1090.3 -202.153 -90.8272 -82.059 -297.369 1149.06
7402 2 -13.3558 -65.6974 -15.1332 136.631 -443.462 -801.628 -46.389 -205.296 127.574 -273.6 924.273
7394 1 -11.9747 -65.9513 -15.9397 896.941 295.717 1359.5 52.9526 -63.2241 419.476 -763.301 1183.98
7400 2 -12.1436 -65.1073 -17.2439 -592.907 -438.208 -931.032 -97.8165 210.623 -105.519 -271.219 621.097
7397 2 -15.9958 -66.523 -14.6053 44.4854 -508.391 -624 173.937 128.737 35.8258 -288.962 726.146
7399 2 -13.8644 -67.8535 -14.302 -464.35 -138.03 -904.055 -244.908 -293.402 285.205 -268.254 1060.91
7408 1 -14.4662 -66.345 -14.0952 732.386 717.697 1419.35 167.513 250.455 -377.959 -776.11 1087.72
7478 1 -10.7938 -68.7575 -15.4269 526.532 143.277 2198.9 140.649 -89.7114 -16.2725 -742.751 1915.44
2526 2 -15.7561 -58.0546 -5.17712 -799.473 -658.432 -609.362 39.1275 -65.7512 55.8237 -244.305 236.924
4993 1 -14.0722 -58.0653 -19.3347 882.198 635.781 1047.82 -208.592 -105.937 -12.6445 -794.117 541.891
4915 2 -19.1889 -65.0864 -13.6136 -363.631 -543.788 -7.98372 169.914 128.008 434.447 -269.109 961.778
4985 2 -20.6015 -64.6037 -19.2853 -516.256 -92.0783 -591.775 71.3535 -188.198 -299.603 -268.831 780.05
2407 2 -23.5578 -64.4229 -20.1827 -442.481 -739.816 -655.392 18.4443 -174.046 -127.287 -260.502 459.278
2408 2 -21.9995 -64.1707 -16.3092 -273.738 -353.112 -501.854 -156.277 -10.9186 -349.162 -271.523 692.53
2401 1 -24.5796 -63.4468 -19.4133 586.603 1034.78 825.735 -12.0769 208.004 252.761 -787.685 687.582
2409 2 -23.6367 -62.9538 -18.1615 -132.374 -579.811 -414.237 20.3116 195.946 -212.154 -270.567 636.382
4897 1 -20.1722 -63.005 -19.2016 538.597 1016.44 812.335 135.535 250.114 709.562 -765.823 1387.69
2403 1 -22.3956 -62.7663 -17.1333 837.602 874.932 992.569 -54.7971 185.652 -249.318 -778.24 564.367
2406 2 -21.1104 -62.3747 -18.0498 -473.4 -453.586 -210.697 -18.2323 -271.033 -62.8503 -275.272 545.367
2412 2 -22.7847 -61.6967 -16.0605 -476.728 -519.735 -517.117 14.5827 -29.3889 158.01 -267.736 282.62
8 2 -21.6766 -59.4763 -16.1242 -504.922 -394.371 -144.85 -68.8313 -19.3257 -246.312 -265.273 547.183
2 1 -22.1871 -60.5544 -15.0558 767.172 805.83 1077.41 73.8205 106.446 -108.347 -793.606 413.891
9 2 -23.0595 -58.8061 -18.4133 -354.223 -450.852 -310.598 27.1324 219.234 -1.59216 -267.518 402.321
6 2 -20.4994 -58.5739 -18.3486 -283.704 -378.883 -302.201 -161.948 -359.659 226.08 -263.853 792.289
2497 1 -19.1656 -58.7288 -19.3077 773.085 732.931 987.739 -39.7169 -202.857 -221.008 -792.898 575.348
3 1 -21.8247 -58.4251 -17.4147 996.368 926.335 1071.27 -32.4913 127.17 -114.74 -797.167 327.016
11 2 -24.9017 -62.2378 -20.3893 -382.782 -600.309 -491.004 68.9386 -26.7643 -175.288 -271.92 379.57
7 2 -24.888 -59.6957 -20.1617 -463.882 -542.291 -580.487 59.9986 96.7197 33.7016 -264.155 229.941
2503 2 -19.253 -59.8965 -20.4038 -382.508 -321.839 -290.547 -60.3213 -137.807 276.448 -293.521 551.106
4905 2 -18.7157 -62.791 -18.5768 -435.982 -502.304 -511.166 103.635 77.7299 -146.34 -276.603 345.916
2501 2 -20.9485 -61.1667 -14.224 -193.215 -495.519 -501.899 -197.814 32.7226 -14.241 -270.378 463.217
10 2 -23.4177 -60.1261 -14.1162 -141.157 -507.025 -521.699 -35.2349 -218.272 27.4882 -269.425 536.994
2506 2 -18.3034 -61.2217 -15.1239 -251.203 -579.59 -486.275 53.4121 -262.626 45.3658 -260.579 554.574
2419 2 -25.0293 -64.5506 -13.9569 -391.729 -319.875 -126.39 152.281 218.188 231.473 -276.632 655.461
2512 1 -19.377 -61.2273 -13.8883 927.571 928.876 901.835 85.7698 -99.8073 -106.971 -801.017 294.924
16 1 -24.9144 -60.53 -13.6666 864.723 901.014 1040.76 37.7004 -13.4369 -284.993 -800.504 523.819
2505 2 -17.9633 -58.8947 -18.3334 -528.431 -490.602 -453.85 98.127 154.373 125.56 -267.293 389.676
1 1 -24.3078 -58.4357 -19.346 796.784 800.325 1000.85 47.964 3.55624 -30.0799 -803.498 224.914
4903 2 -17.6375 -65.0047 -17.9383 -381.89 -220.29 -664.737 240.525 -43.0171 -142.005 -282.087 625.644
7401 2 -13.7117 -63.9546 -19.1891 -303.429 -517.253 -160.066 -43.7807 304.716 -249.45 -277.65 753.598
7398 2 -11.1848 -64.079 -19.2665 -378.069 -706.985 -526.161 -230.068 -178.153 78.3019 -257.808 594.819
7395 1 -12.4303 -63.9414 -18.2049 773.324 747.286 859.319 23.0514 -77.018 609.704 -792.542 1070.01
7393 1 -14.8644 -63.1881 -20.0314 566.765 1007.59 950.76 16.7188 132.884 413.678 -760.997 860.061
4899 1 -17.3216 -63.4281 -18.0995 507.282 841.303 881.582 -161.359 77.156 189.305 -775.563 574.566
4908 2 -16.8929 -62.722 -16.724 -452.292 -236.407 -465.864 117.886 78.1977 131.351 -271.208 401.891
7404 2 -12.3589 -62.5776 -17.3204 -346.964 -155.24 -274.217 148.063 93.3034 259.086 -270.59 566.89
4902 2 -16.1625 -63.1426 -19.1267 -340.246 -544.288 -657.625 51.8855 -31.8878 -187.174 -281.76 440.264
2498 1 -16.8549 -61.4157 -15.7623 715.474 991.1 898.685 -18.9914 -39.0761 -85.2375 -802.568 294.105
2504 2 -16.4344 -60.0748 -16.6053 -452.053 107.645 -480.019 65.1148 -39.4814 -134.145 -267.486 633.306
5002 2 -13.2552 -61.6207 -14.9528 -122.72 -469.399 -178.362 0.207564 -304.317 144.141 -259.139 666.445
4994 1 -12.0559 -61.4935 -16.1025 921.046 774.36 1294.8 -137.387 -94.2021 -5.82612 -798.377 547.161
2499 1 -16.6148 -58.6727 -17.4455 868.701 915.627 1034.24 -63.854 -49.6421 -197.043 -796.437 397.417
5000 2 -12.0212 -59.988 -16.6078 -403.061 -235.408 -630.338 64.6352 65.0315 -28.6332 -271.584 381.505
4995 1 -11.8802 -58.438 -17.02 790.461 785.944 994.166 -10.6406 -50.1802 -145.022 -800.217 336.785
2502 2 -15.4036 -58.5115 -18.5461 -310.581 -460.457 -356.784 72.9929 -225.048 30.7383 -265.854 434.087
4997 2 -15.8729 -61.5573 -14.5262 -422.329 -600.573 -476.197 27.8514 58.3203 -1.37259 -257.088 193.927
5008 1 -14.4234 -61.5064 -13.7885 1027.58 929.283 855.231 -148.402 -114.92 7.432 -812.123 358.161
7493 2 -10.6653 -61.8631 -15.3377 -98.1553 -392.465 -320.306 39.3084 382.252 18.4428 -263.231 717.351
4999 2 -13.7754 -59.1634 -20.5337 -375.027 -395.199 -423.556 104.625 64.4671 217.037 -271.656 434.056
5003 2 -14.3246 -61.7035 -20.3745 -447.366 -571.652 -660.493 24.6895 -69.5273 12.1182 -285.87 226.17
4935 1 -17.6503 -63.3387 2.87763 994.663 1145.71 1353.25 -144.377 98.7022 -82.4813 -848.456 457.612
2414 1 -22.4282 -65.3683 -8.46282 776.795 1292.06 840.185 15.2873 -65.4742 70.2155 -794.636 514.977
2328 2 -22.1883 -65.1175 -10.0067 -644.916 -551.223 -297.042 -57.9117 -110.646 -261.407 -259.179 590.755
2422 2 -23.976 -65.3875 -8.00081 15.9982 -410.579 -621.129 90.451 -251.483 -28.0005 -264.168 729.893
4913 2 -21.6043 -66.5625 -7.57592 -88.6624 -515.67 -153.826 -56.281 308.629 -124.759 -231.361 707.608
4918 2 -18.977 -65.763 -7.79334 -356.695 -423.92 -834.771 140.044 -135.013 -247.925 -265.182 706.3
2428 1 -25.4291 -65.6194 -7.33973 1016.46 1148.54 689.9 -108.66 -15.656 23.578 -814.816 452.813
4924 1 -20.397 -65.5473 -7.06834 776.968 1278.22 835.348 127.563 -45.353 101.605 -808.41 557.995
4824 2 -17.8997 -66.8384 -9.8331 -411.551 -191.561 -553.31 -19.891 -87.4765 -222.066 -173.503 521.306
9905 2 -11.2501 -66.8007 -7.83425 18.6346 -496.014 -696.379 147.09 300.608 258.951 -242.179 972.263
4910 1 -17.7127 -66.2562 -8.4834 379.893 525.03 1231.58 -84.6614 308.657 76.4336 -813.336 973.479
7411 2 -14.2951 -65.4861 -12.726 -541.789 -212.806 -332.209 51.2433 21.5269 457.398 -265.747 848.594
7320 2 -12.3644 -66.5067 -10.3696 -377.376 -193.693 -344.608 50.702 -78.0344 -27.4652 -180.404 238.825
7409 2 -16.5136 -66.6952 -7.46947 -53.8498 -490.833 -775.021 152.461 -20.9686 126.037 -239.833 717.363
7406 1 -12.4227 -66.2984 -8.85667 645.163 639.164 1601.87 -72.1032 -73.0466 -22.2402 -802.898 976.811
7414 2 -13.8598 -66.0655 -8.18707 64.684 -320.487 -822.735 -58.5005 -67.1834 -133.711 -273.759 819.454
7420 1 -15.3096 -65.6625 -7.70557 719.921 937.102 1283.09 -37.9424 130.686 -42.9007 -783.867 550.537
2415 1 -21.9567 -63.8847 -11.0015 753.333 1261.02 678.723 -42.2536 342.701 168.171 -806.753 862.395
2421 2 -23.2067 -63.8162 -12.0925 -356.614 -599.863 -250.241 60.2408 177.95 83.4013 -267.16 472.348
2420 2 -21.3361 -64.3914 -7.74678 -135.164 -981.61 -556.891 -127.779 84.7347 -31.4573 -237.476 781.567
2418 2 -20.5606 -64.0227 -11.6431 -526.025 -666.349 -569.115 -57.2996 -22.3988 93.9523 -262.527 230.948
4909 1 -19.1146 -63.967 -12.3282 700.695 1119.34 1028.2 76.7971 31.8836 -111.566 -800.295 451.108
2413 1 -24.6447 -63.6148 -12.6309 654.841 1108.8 924.818 69.0333 -87.7148 -70.3241 -806.243 456.753
23 2 -24.8572 -62.0577 -13.0386 -477.729 -87.6172 -542.846 -19.7754 -33.6307 -42.0139 -258.529 437.827
2424 2 -22.0058 -62.5757 -9.97452 -517.269 -352.367 -160.349 78.224 11.7101 308.162 -254.75 631.971
14 1 -21.9597 -61.6018 -8.66576 1042.65 1072.14 976.835 1.55453 195.644 -108.322 -835.191 396.46
20 2 -21.8344 -60.1027 -9.24303 -621.629 -341.325 -472.85 17.4731 -137.691 -110.856 -250.445 391.997
21 2 -23.605 -59.0812 -10.7321 -291.686 -492.177 -497.843 -40.163 30.9961 47.2476 -262.23 236.185
18 2 -21.0167 -58.9171 -11.4533 -201.6 -492.468 -534.527 52.6531 -138.221 11.0742 -263.438 405.718
15 1 -22.0915 -58.9046 -10.2831 743.641 916.13 1049.52 138.292 76.3886 19.1554 -815.864 382.799
2509 1 -19.4983 -58.6719 -12.0136 945.625 839.313 938.817 22.3997 -32.9578 -98.8255 -807.57 211.395
2519 2 -19.0167 -62.5484 -13.0705 -535.266 -300.77 -529.567 -128.127 85.8898 6.25163 -267.515 353.811
2515 2 -19.1954 -59.7879 -13.1373 -621.255 -177.537 -523.009 -71.4395 -28.7815 169.61 -255.346 516.761
22 2 -23.309 -61.8491 -7.84088 -459.265 -594.269 -459.017 120.269 -178.833 -45.9043 -249.72 404.869
13 1 -24.985 -58.4757 -11.3576 884.983 1191.72 781.533 40.5579 240.559 -51.7264 -803.909 568.407
19 2 -25.4507 -59.5342 -12.5439 -541.299 -239.857 -238.555 95.131 24.7092 281.733 -265.557 598.634
2513 2 -20.7131 -61.7451 -7.61246 -395.986 -844.789 -202.978 -19.9566 158.523 158.938 -245.069 691.134
2517 2 -18.4701 -58.9826 -10.8148 -382.384 -516.663 -517.361 -95.6728 73.6974 -113.791 -261.429 317.371
28 1 -24.6372 -61.7048 -6.95281 1083.98 1043.22 780.696 47.0098 181.245 -44.8949 -837.092 438.756
2518 2 -18.2195 -61.9171 -6.98502 -442.942 -469.042 -431.559 -81.7045 -241.64 94.0707 -254.108 472.072
4916 2 -16.5187 -64.9823 -8.8666 113.731 -620.15 -521.463 -129.621 291.553 -256.329 -285.761 989.153
7505 2 -10.5299 -61.3638 -7.5058 -509.021 -577.569 -578.212 -108.454 59.0323 -39.7256 -244.383 234.988
5010 2 -10.7111 -58.7882 -11.6987 -381.811 -639.335 -451.405 -38.1034 -135.481 77.6153 -255.103 361.57
7412 2 -11.3696 -64.8126 -8.83492 144.014 -718.485 -372.313 61.4814 298.274 -259.673 -272.097 1022.59
4917 2 -18.0412 -64.0745 -11.1402 -482.049 -775.896 44.4309 -7.7106 260.237 46.9721 -264.614 853.346
7405 1 -14.2567 -64.1269 -11.8972 852.342 1232.15 692.807 -73.1887 73.5818 -344.38 -815.766 786.386
4914 2 -15.5131 -63.9709 -10.9429 -657.834 -647.02 -400.778 -83.8413 -67.4473 101.717 -262.342 359.429
7413 2 -12.945 -63.9526 -10.954 -407.711 -973.105 -283.656 42.1007 124.048 -21.7939 -251.548 676.835
4911 1 -16.8348 -63.8646 -10.0907 816.374 1144.31 677.199 -46.6399 138.045 10.3933 -795.649 486.387
7407 1 -11.5447 -63.8849 -10.2351 652.164 1208.77 964.015 -6.61007 82.0748 138.565 -824.493 558.053
5015 2 -14.245 -62.809 -12.9043 -539.506 -106.181 -561.836 64.573 7.12424 -32.3483 -259.277 462.327
4920 2 -17.0974 -62.5016 -9.32506 -488.13 -467.046 -349.828 -27.8778 -34.6247 146.376 -264.255 294.723
5006 1 -11.7126 -61.19 -8.59427 837.125 981.025 1080.87 -61.736 -20.8744 -213.788 -827.593 441.475
5012 2 -11.5818 -59.7772 -9.44747 -553.612 -163.795 -493.868 112.936 -124.915 -127.2 -254.929 515.609
5014 2 -13.0419 -61.3219 -7.72645 -324.74 -489.799 -318.571 113.245 -249.08 5.02601 -255.161 502.964
2510 1 -17.1036 -61.5284 -8.01332 688.255 859.005 1064.19 94.6526 173.448 -169.772 -819.133 556.678
2516 2 -17.2424 -60.0657 -8.67859 -549.117 -497.804 -501.702 47.4452 14.0313 -136.275 -252.572 255.939
5011 2 -14.5222 -60.1286 -12.958 -499.131 -224.977 -298.868 -150.626 -203.769 224.937 -258.985 636.226
2514 2 -15.8912 -59.3945 -10.7403 -386.365 -478.613 -505.161 -64.9394 -80.3013 139.267 -261.957 319.133
5005 1 -14.7375 -59.029 -11.7509 813.469 885.921 1093.43 -74.1093 114.996 -69.551 -819.566 366.065
5013 2 -13.2974 -58.9016 -11.0093 -183.457 -465.26 -623.055 214.852 67.9783 166.624 -250.943 620.014
2511 1 -17.2 -59.0135 -9.86631 812.969 987.748 913.65 -81.2797 -18.2031 117.877 -821.23 292.55
5007 1 -11.777 -58.6161 -10.4985 900.649 1019.22 1024.45 130.734 60.8187 -18.1066 -822.618 279.394
5009 2 -15.7065 -61.5058 -7.22044 -444.201 -541.294 -540.392 117.69 33.0907 270.793 -254.282 523.607
7416 2 -11.4615 -62.417 -9.59453 -501.421 -431.779 -737.472 -56.5761 -94.8047 80.8131 -246.082 364.922
5020 1 -14.2549 -61.2874 -6.59356 1058.97 801.926 952.376 -35.5008 -55.7769 -176.241 -825.682 395.387
4927 2 -20.0943 -65.1065 -5.56439 -641.246 -614.472 -159.082 157.767 32.6948 297.535 -239.522 750.832
2431 2 -25.1591 -65.3921 -5.82978 -808.349 -369.94 -511.513 101.797 21.0003 257.213 -242.821 617.305
2426 1 -23.5357 -65.6893 0.0196996 1103.59 1135.37 1074.68 72.315 118.206 -65.365 -780.632 270.534
2434 2 -24.8934 -66.6282 0.258845 149.142 -635.593 -371.861 72.6389 -451.271 -193.601 -244.68 1103.45
7332 2 -12.6697 -67.8381 -1.84972 -542.112 -132.835 -399.546 -11.599 -69.4406 -108.89 -121.849 424.174
7418 1 -12.6307 -66.5378 -1.03926 1530.62 1064.59 1023.41 -39.6065 -42.7596 324.562 -936.256 751.186
7426 2 -14.215 -66.0938 -0.516261 -72.7781 -652.051 -506.846 -104.785 13.187 -182.109 -208.203 636.774
7432 1 -15.5863 -65.302 -0.353755 1397.36 1074.22 853.372 -155.414 88.3097 35.6785 -876.791 569.417
9917 2 -11.5518 -66.5959 0.194077 -277.214 -654.984 -367.815 -47.4325 283.304 -11.2856 -203.425 603.827
43 2 -25.4984 -59.8553 0.66336 -603.461 -373.968 -594.058 14.8073 86.5618 92.9441 -248.338 315.674
2507 2 -20.1622 -62.2844 -20.588 -353.778 -598.564 -562.904 3.56198 -205.804 -185.266 -296.703 531.542
2432 2 -23.1507 -64.8773 -1.31324 -504.917 -354.047 31.9407 200.097 -361.759 -276.794 -262.118 986.181
2433 2 -23.6855 -64.3382 -3.8702 -600.197 -619.346 -232.44 -57.8535 90.1512 -33.819 -244.829 424.862
2425 1 -24.939 -64.1298 -4.81671 1253.7 1243.82 600.222 30.5395 -30.7268 -139.915 -831.14 696.442
2430 2 -21.1933 -64.3267 -3.28449 -324.55 -561.896 -278.903 146.889 -427.762 -128.768 -240.768 855.957
4921 1 -19.9191 -64.0792 -4.29513 1089.25 1187.28 950.66 -98.4053 126.329 -147.627 -846.471 429.78
2427 1 -22.6524 -64.0343 -2.64956 1163.19 839.774 881.733 -16.8164 98.7246 145.363 -839.818 431.586
2531 2 -20.0424 -62.7159 -5.22499 -542.867 -560.105 -186.643 -0.494959 -99.5097 -304.791 -243.369 664.63
2436 2 -22.6924 -62.5116 -2.32901 -617.871 -242.235 -515.789 104.892 -11.823 -70.2897 -249.506 401.778
2524 1 -19.7225 -61.6376 -6.36386 1064.35 1160.21 949.447 -0.680865 135.684 114.922 -833.84 358.134
2527 2 -19.7147 -60.1153 -5.69106 -484.989 -144.773 -416.418 -2.50395 -32.7809 160.885 -250.927 421.918
31 2 -24.5092 -60.1453 -6.46166 -653.763 -112.015 -532.657 48.6876 -44.8334 -105.228 -249.332 537.503
26 1 -22.625 -60.8417 -2.14435 913.079 1156.1 953.886 -198.258 77.438 156.493 -827.842 510.086
34 2 -23.9995 -60.4042 -1.3989 -234.776 -572.338 -405.309 43.206 -196.273 0.128543 -243.456 454.57
32 2 -22.6165 -59.9975 -3.51627 -669.679 -76.5823 -457.971 29.2256 -30.2626 -204.398 -245.696 633.771
2525 2 -21.3009 -60.4344 -1.39833 -379.808 -643.038 -573.57 163.104 -94.4327 18.4807 -256.303 404.248
2521 1 -19.6935 -58.5474 -5.35444 685.364 987.627 978.433 21.3508 112.051 -50.7503 -839.806 368.007
27 1 -22.4397 -58.395 -3.91276 1189.67 1288.41 675.547 -13.7 67.8407 66.8845 -827.942 593.824
25 1 -24.6481 -58.592 -6.121 1074.51 873.584 890.379 4.63601 51.9584 84.5519 -829.6 258.627
35 2 -24.7159 -62.862 -5.81746 -631.437 -252.116 -166.405 45.1557 -209.748 -181.359 -256.136 648.473
2536 1 -19.7823 -60.6383 -0.978751 698.215 1314.35 949.758 -99.7311 144.771 146.836 -831.982 667.314
40 1 -25.249 -60.9227 -0.457608 1067.72 908.36 680.964 12.5901 -108.475 -4.46634 -837.594 386.239
2543 2 -19.7715 -62.2893 -0.573165 -648.711 -214.411 -762.922 70.3211 -83.5496 -135.348 -237.106 584.805
2530 2 -18.6492 -60.5182 -2.03428 -154.809 -703.155 -614.264 -58.7576 -38.6082 87.0342 -249.302 545.34
4929 2 -18.5319 -64.2182 -3.55888 -114.355 -523.616 -338.003 16.2637 252.43 -14.9145 -241.926 564.452
2539 2 -19.453 -59.7762 0.372514 -635.084 -412.671 -220.943 40.3507 -33.594 201.121 -244.855 508.418
47 2 -24.7499 -62.297 0.145252 -634.197 -560.609 -540.436 36.0229 82.7868 -90.9634 -253.23 237.873
2529 2 -18.2962 -58.1899 -4.65755 -619.799 -642.782 -510.494 64.5015 51.1189 80.9031 -243.496 234.403
7424 2 -12.2276 -65.2081 -1.8542 -687.184 -521.29 -527.872 -0.893342 -17.8155 -154.201 -212.9 314.261
7422 2 -11.0403 -64.1579 -3.99084 -463.24 -728.6 -350.665 -93.9793 -242.971 151.564 -229.169 620.869
4928 2 -16.3733 -64.7675 -1.66337 -378.75 -494.633 -94.4093 -102.313 132.378 -313.332 -239.99 711.15
7517 2 -11.0861 -60.8645 -0.945227 -388.585 -722.598 -456.35 76.6105 205.698 -14.6237 -236.222 488.576
7423 2 -14.9794 -64.7143 -6.44401 -596.093 -537.104 -24.6749 134.728 347.238 164.308 -248.308 890.763
7425 2 -13.5247 -64.3971 -4.00189 -765.908 -743.259 -254.87 51.7024 24.904 213.232 -237.723 629.588
4923 1 -16.967 -63.8968 -2.94833 1214.19 906.68 1160.55 -115.495 303.273 -53.4119 -840.669 636.745
4926 2 -16.0317 -63.9992 -4.27154 -538.625 -606.24 -350.561 137.721 -225.522 -63.2048 -238.758 523.566
7419 1 -12.3147 -64.0846 -2.99245 887.036 1234.83 886.336 11.0638 57.9349 -55.9769 -872.546 375.551
7417 1 -14.6179 -63.9297 -5.02331 1108.12 1045.85 647.059 33.5642 184.242 -138.148 -841.411 591.788
2528 2 -16.666 -59.7535 -3.46435 -648.733 -308.264 -326.865 67.5891 -58.9034 -140.184 -248.995 439.318
5019 1 -12.2414 -58.4631 -3.39144 1074.62 1066.36 923.537 -157.036 -106.872 -22.2961 -833.034 362.468
4932 2 -16.95 -62.4005 -2.505 -602.392 -374.133 -583.49 157.708 -75.755 -17.4719 -252.386 375.357
5027 2 -14.1643 -62.4983 -5.56429 -667.409 -516.4 -457.915 52.8736 -241.324 -5.72243 -248.058 467.175
7428 2 -12.3963 -62.6116 -2.38247 -463.55 -266.75 -454.491 49.612 10.9457 161.776 -241.354 351.123
5023 2 -14.0913 -59.8247 -5.96321 -574.896 -345.002 -553.468 143.355 68.5623 84.7799 -257.164 381.709
2522 1 -17.0304 -60.8051 -2.23877 1044.86 1153.98 1133 -46.0805 206.045 -83.3045 -824.223 405.723
5018 1 -12.4512 -61.0761 -1.77148 799.912 1226.88 945.816 -144.257 8.95179 72.3329 -850.917 468.681
5021 2 -16.2021 -60.4166 -0.892762 -365.626 -602.104 -137.512 58.9759 201.207 30.3535 -248.698 544.567
5026 2 -13.6681 -60.8368 -0.767403 -580.158 -627.832 -418.52 21.5896 -53.2177 104.028 -242.403 280.117
2523 1 -16.8518 -58.2772 -4.03806 765.484 1019.1 722.603 -57.853 89.2949 -86.4218 -842.015 365.244
5024 2 -12.5387 -59.942 -2.89001 -553.658 -447.981 -549.006 61.5414 -13.3506 -100.976 -248.997 230.614
5032 1 -14.9317 -60.4423 0.123398 1147.93 1075.59 671.343 -166.203 -17.1448 -215.625 -851.541 648.94
5022 2 -10.8624 -58.4174 -4.29818 -274.761 -580.13 -396.625 101.519 -175.309 77.2497 -247.736 460.335
4925 2 -22.1579 -66.2317 0.623463 40.0794 -444.604 -784.52 -302.733 120.938 99.4875 -256.001 929.368
4943 2 -21.0522 -66.142 2.86157 -757.219 -571.675 -312.68 -10.7886 -65.3202 -118.03 -232.618 452.22
2446 2 -22.7329 -65.9266 4.86065 -280.295 -653.076 -438.007 69.757 -106.641 -14.2697 -228.584 392.904
4936 1 -20.6799 -66.0705 1.26818 918.757 919.861 1248.01 69.3135 -214.138 -199.979 -831.601 616.441
4937 2 -20.024 -65.6179 5.24019 -540.566 -572.06 -522.512 -103.138 76.4929 -66.0222 -238.968 253.829
2438 1 -21.2939 -65.4372 4.27723 1205.8 1268.37 659.146 179.317 55.9367 135.175 -857.37 705.419
4930 2 -19.2777 -66.7934 1.183 -105.168 -518.485 -652.709 89.5671 324.845 -3.59489 -242.014 764.854
2459 2 -25.3521 -66.1595 5.10204 -194.503 -557.763 -291.228 118.785 250.427 98.9642 -229.344 605.003
4948 1 -18.7427 -65.8385 6.15688 910.894 960.195 727.698 241.031 308.73 -303.046 -845.997 883.608
7430 1 -11.3128 -65.8988 4.32672 996.656 899.049 1417.67 -219.177 -85.7625 318.563 -871.253 835.767
7344 2 -10.8927 -66.4863 2.82893 -767.673 -514.248 -296.159 117.921 -3.57681 -32.2104 -212.887 460.351
4955 2 -17.96 -67.1733 5.87285 -320.105 -913.356 -296.689 -171.955 -274.744 156.616 -221.759 868.982
4922 1 -17.8507 -66.2773 1.81778 1243.53 867.591 1303.97 16.4019 -62.2368 139.241 -843.899 488.158
7421 2 -16.7252 -65.9785 0.675968 -301.724 -460.707 -249.253 152.153 -412.748 -178.424 -231.299 844.044
4940 2 -17.2439 -66.9887 3.1643 -647.093 -587.811 120.73 71.6809 232.667 -87.1619 -236.158 864.96
7438 2 -12.6424 -66.3949 5.06678 -44.0742 -503.125 -596.305 29.2158 -234.053 -4.35514 -236.764 655.091
4934 1 -16.9363 -66.6025 4.71699 903.785 1151.75 1187.05 264.504 -18.8274 128.534 -836.62 576.195
7433 2 -15.3565 -66.493 4.99475 -166.083 -596.195 -695.231 183.108 196.431 -214.303 -239.252 769.103
7444 1 -14.0601 -66.1532 5.82809 921.925 1051.82 1253.41 -378.668 -30.7951 -216.116 -854.794 810.45
2452 1 -24.0365 -65.2265 5.49828 864.804 1646.76 711.803 -18.7249 63.5416 -191.915 -881.823 937.105
4941 2 -18.1663 -62.9174 1.33382 -565.984 -809.292 -211.198 171.992 126.807 38.0991 -229.447 642.444
2443 2 -24.6088 -64.6615 1.07971 -196.917 -603.422 -549.912 -143.847 -576.242 100.016 -284.617 1111.13
4836 2 -18.1632 -64.875 2.5899 -656.738 -414.449 -816.797 101.313 -2.26106 415.972 -232.529 820.371
5001 2 -12.9007 -58.104 -18.2262 -391.415 -462.906 -387.439 -17.2286 212.957 -42.5746 -267.059 384.437
4939 2 -20.2781 -64.5451 0.726943 -548.061 -343.751 -552.418 190.629 -109.43 -151.76 -245.561 506.643
37 1 -25.1351 -58.8788 1.90195 1245.63 867.976 760.629 -21.0568 303.173 -59.1178 -846.819 694.435
2441 2 -24.2311 -63.846 4.73022 -507.542 -418.264 -82.7152 -1.29202 -21.7801 -7.77484 -162.369 390.039
2444 2 -21.3738 -63.8647 3.84099 -795.214 -452.718 -360.662 72.0511 -11.4198 -213.006 -234.892 556.226
2437 1 -24.5376 -63.062 1.532 1044.96 607.399 1290.88 -242.806 116.711 97.6822 -812.267 778.391
2439 1 -21.7487 -62.624 2.89335 1069.4 978.857 1064.82 113.618 -145.902 -178.075 -855.325 453.35
2448 2 -22.0936 -61.3831 3.90959 -666.531 -505.227 -285.293 -129.868 -69.4074 310.115 -234.251 680.756
39 1 -22.252 -58.4621 3.23781 1131.01 1018.42 898.279 5.31495 83.3407 51.6532 -854.02 263.75
42 2 -20.907 -58.9688 2.49611 -455.484 -781.516 -370.67 -48.0795 -175.855 59.8783 -232.748 501.606
2533 1 -19.5309 -58.8324 1.67818 1001.07 1093.42 678.772 -80.4653 -101.537 12.3076 -865.453 439.289
45 2 -23.5437 -58.9525 2.39489 -242.068 -498.63 -360.153 250.685 162.959 202.52 -241.768 663.861
38 1 -22.3651 -60.5355 5.24742 1232.82 1217.25 563.723 109.851 -51.3869 133.283 -865.203 731.393
2442 2 -20.5297 -62.3038 1.87607 -572.489 -555.671 -451.332 -50.4261 -119.953 -48.8892 -238.077 266.25
44 2 -22.3591 -58.9876 4.71791 -632.449 -478.737 -523.71 10.5859 -2.46006 -109.921 -234.77 235.243
4933 1 -19.6431 -63.072 0.750425 1053.85 867.62 749.87 -35.515 30.7449 511.534 -845.246 928.492
2445 2 -23.0155 -62.9851 2.01723 -334.174 -496.826 -772.824 -81.2727 42.3298 32.9342 -254.016 419.485
46 2 -23.7384 -60.8776 6.05281 -530.695 -667.248 -165.937 39.7319 -333.444 -141.059 -226.532 774.266
2537 2 -21.2351 -60.8129 6.27695 -809.241 -607.539 -549.74 -6.47597 -83.999 -91.9085 -234.747 319.871
2542 2 -18.7664 -61.5017 6.31366 -806.899 -792.556 -830.589 -77.2286 206.649 197.594 -226.856 514.044
4944 2 -17.973 -62.292 4.04223 -766.612 -261.906 -285.76 270.325 174.616 293.464 -237.702 901.288
2541 2 -18.3255 -59.0499 2.65036 -706.775 -719.746 -614.796 107.254 -48.268 148.149 -230.677 342.294
30 2 -20.8682 -58.2191 -4.37254 -368.385 -682.688 -512.494 40.921 -58.7296 -39.9194 -245.191 307.265
5038 2 -13.5729 -61.2283 6.64122 -487.285 -641.338 -614.102 106.763 -72.0311 -32.0458 -233.538 270.406
5039 2 -15.0512 -61.566 1.27208 -640.927 -550.145 -549.652 51.2474 66.812 -83.287 -236.139 224.426
7447 2 -14.3335 -64.6457 6.4661 -506.07 -734.983 -369.114 -0.309937 -215.16 537.208 -206.615 1052.22
7435 2 -15.129 -63.9995 0.467688 -689.586 -701.095 -386.959 195.452 34.5021 -25.2494 -226.347 463.989
4942 2 -17.5245 -65.1821 5.29241 -751.333 -719.55 -366.246 -158.481 -168.985 228.618 -210.704 674.446
7436 2 -11.5951 -64.3698 4.00086 -568.937 -623.275 -631.862 81.8215 96.6592 -221.052 -227.968 445.195
7437 2 -13.4661 -63.2672 2.4988 -409.901 -577.419 -616.462 -12.1587 199.591 -110.066 -231.55 438.661
2538 2 -15.8417 -58.7039 3.16949 -499.241 -690.725 -439.012 125.252 -111.804 8.61064 -236.54 369.612
7434 2 -11.0098 -62.4634 2.29554 -544.252 -609.975 -556.044 56.2355 -16.0444 -109.034 -233.813 222.729
4938 2 -16.0416 -63.3164 2.81503 -541.014 -616.035 -852.856 103.811 -17.0789 -12.4258 -229.85 336.374
5034 2 -10.5288 -58.9911 3.05003 -451.51 -729.395 -443.798 82.9828 -70.4746 -46.7563 -236.963 348.625
2534 1 -17.5831 -61.38 5.33985 1094.22 1222 617.664 -201.839 199.905 -4.19732 -874.139 739.244
5030 1 -12.2944 -61.0449 5.79573 822.624 1249.22 956.951 57.3082 170.179 -88.8233 -878.267 512.963
5031 1 -11.9095 -58.6524 3.78687 1016.36 1062.56 976.977 21.7136 -0.381962 -73.8451 -864.097 152.575
7529 2 -10.9575 -61.2769 6.65875 -251.383 -618.977 -381.91 -29.9656 221.294 112.538 -230.616 540.17
5029 1 -14.6399 -58.2911 2.22498 956.688 1222.21 892.985 -237.17 -29.2136 -86.3652 -853.952 534.003
5025 2 -13.396 -57.8823 -4.33747 -544.255 -559.427 -219.604 57.6973 125.934 49.771 -250.119 418.987
7431 1 -12.1554 -63.0161 3.28945 732.66 1009.54 1044.54 27.3943 -149.803 -112.54 -871.453 441.757
7429 1 -14.9288 -63.0636 1.7629 792.617 933.168 1141.33 -326.034 123.392 233.336 -868.665 787.562
2540 2 -17.5549 -59.8067 4.91855 -673.533 -492.164 -690.067 51.4977 -76.1615 61.4898 -227.281 269.94
5037 2 -13.2274 -58.7018 2.85803 -321.367 -613.191 -486.371 -78.1052 137.966 2.29067 -240.135 373.706
5033 2 -16.1297 -61.6435 5.95365 -311.768 -733.91 -379.905 215.977 206.514 94.9072 -225.013 670.065
5036 2 -12.1581 -59.5743 5.08943 -581.991 -472.025 -314.977 36.3089 -81.142 -194.667 -228.995 437.516
2535 1 -17.3114 -58.7188 3.8242 965.748 1014.37 847.821 -95.1845 -28.583 54.2058 -869.663 245.869
7440 2 -12.4017 -62.0079 4.48123 -641.514 -685.186 -440.211 10.5734 78.3591 106.01 -222.8 322.011
5035 2 -14.7763 -59.0064 0.780924 -660.808 -566.054 -423.842 98.6315 -20.1625 172.091 -238.581 402.403
5017 1 -14.2995 -58.2839 -5.634 690.433 919.503 989.461 -21.4934 117.587 -102.159 -825.791 384.146
9928 1 -10.4385 -66.2199 1.33059 1446.91 908.291 1119.96 -144.195 110.825 -158.537 -905.459 628.911
33 2 -23.4526 -58.138 -5.13543 -395.082 -669.284 -306.788 40.5803 110.931 36.4227 -251.531 391.191
4998 2 -10.4104 -58.1289 -17.6209 -213.576 -521.675 -480.447 -16.6318 -254.291 -82.9244 -267.453 547.15
9893 2 -10.5298 -65.7601 -15.2452 67.1356 -331.797 -718.527 -196.581 192.718 -40.8127 -266.162 833.868
2453 2 -25.2499 -65.6788 13.3394 -84.7404 -418.584 -416.503 56.4426 317.952 -47.3196 -252.471 655.985
2450 1 -21.6567 -65.2606 13.6154 983.468 1072.75 1458.03 -106.848 191.892 -123.768 -850.958 617.646
2458 2 -22.7226 -66.3435 14.1745 18.0031 -862.103 -630.017 57.1301 -335.681 70.0556 -214.075 993.353
4951 2 -19.069 -65.1266 7.53253 -673.334 -365.275 -494.874 -109.045 -257.05 183.09 -236.638 637.365
7448 2 -12.3334 -65.1046 11.1482 -456.73 -332.791 -437.475 40.4569 76.3979 138.483 -117.039 305.447
7451 2 -14.0276 -66.4867 7.44094 -537.049 -597.069 -278.188 123.623 -29.6416 457.339 -200.359 872.988
2456 2 -21.6315 -65.1189 11.9466 -740.76 -569.921 45.981 31.4393 159.458 -143.686 -228.412 809.274
2457 2 -22.902 -64.3986 9.56823 -289.191 -662.526 -211.63 69.4597 116.863 67.0657 -239.433 493.244
2454 2 -20.2753 -64.332 9.88679 -502.958 -651.296 -440.935 71.4452 -224.201 150.312 -227.862 518.599